
[ moleculetype ]
;name            nrexcl
 MOL              3

[ atoms ]
;   nr  type  resi  res  atom  cgnr     charge      mass       ; qtot   bond_type
     1   S6     1   MOL    S1    1     1.144738     32.06000 ; qtot 1.145
     2   C3     1   MOL    C1    2    -0.479565     12.01000 ; qtot 0.665
     3   C3     1   MOL    C2    3    -0.051660     12.01000 ; qtot 0.614
     4   N3     1   MOL    N1    4    -0.532063     14.01000 ; qtot 0.081
     5    C     1   MOL    C3    5     0.788685     12.01000 ; qtot 0.870
     6    N     1   MOL    N2    6     0.060538     14.01000 ; qtot 0.931
     7    C     1   MOL    C4    7     0.727424     12.01000 ; qtot 1.658
     8   C3     1   MOL    C5    8     0.185976     12.01000 ; qtot 1.844
     9   C3     1   MOL    C6    9     0.296984     12.01000 ; qtot 2.141
    10    C     1   MOL    C7   10     0.627052     12.01000 ; qtot 2.768
    11   CA     1   MOL    C8   11     0.072428     12.01000 ; qtot 2.841
    12    N     1   MOL    N3   12    -0.498232     14.01000 ; qtot 2.342
    13   CA     1   MOL    C9   13    -0.301819     12.01000 ; qtot 2.040
    14    N     1   MOL    N4   14    -0.699951     14.01000 ; qtot 1.341
    15   CA     1   MOL   C10   15     0.016702     12.01000 ; qtot 1.357
    16   CA     1   MOL   C11   16     0.371558     12.01000 ; qtot 1.729
    17    O     1   MOL    O1   17    -0.567064     16.00000 ; qtot 1.162
    18    O     1   MOL    O2   18    -0.567064     16.00000 ; qtot 0.595
    19   CC     1   MOL   C12   19    -0.189069     12.01000 ; qtot 0.406
    20    O     1   MOL    O3   20    -0.614547     16.00000 ; qtot -0.209
    21    O     1   MOL    O4   21    -0.510645     16.00000 ; qtot -0.720
    22   CC     1   MOL   C13   22    -0.427395     12.01000 ; qtot -1.147
    23    O     1   MOL    O5   23    -0.604875     16.00000 ; qtot -1.752
    24   CA     1   MOL   C14   24    -0.222204     12.01000 ; qtot -1.974
    25   CA     1   MOL   C15   25    -0.137760     12.01000 ; qtot -2.112
    26   CD     1   MOL   C16   26    -0.245000     12.01000 ; qtot -2.357
    27   CD     1   MOL   C17   27     0.017410     12.01000 ; qtot -2.339
    28   CA     1   MOL   C18   28     0.418700     12.01000 ; qtot -1.921
    29   N3     1   MOL    N5   29    -0.861478     14.01000 ; qtot -2.782
    30    F     1   MOL    F1   30    -0.215381     19.00000 ; qtot -2.998
    31   CA     1   MOL   C19   31    -0.047380     12.01000 ; qtot -3.045
    32   Cl     1   MOL   CL1   32    -0.132171     35.45000 ; qtot -3.177
    33   CA     1   MOL   C20   33    -0.321661     12.01000 ; qtot -3.499
    34   CA     1   MOL   C21   34    -0.321661     12.01000 ; qtot -3.820
    35   CA     1   MOL   C22   35    -0.040397     12.01000 ; qtot -3.861
    36   CA     1   MOL   C23   36    -0.040397     12.01000 ; qtot -3.901
    37   HC     1   MOL    H1   37     0.139404      1.00800 ; qtot -3.762
    38   HC     1   MOL    H2   38     0.088831      1.00800 ; qtot -3.673
    39   H1     1   MOL    H3   39     0.049746      1.00800 ; qtot -3.623
    40   H1     1   MOL    H4   40     0.049746      1.00800 ; qtot -3.574
    41   H1     1   MOL    H5   41     0.050469      1.00800 ; qtot -3.523
    42   H1     1   MOL    H6   42     0.050469      1.00800 ; qtot -3.473
    43   HN     1   MOL    H7   43     0.323576      1.00800 ; qtot -3.149
    44   HA     1   MOL    H8   44     0.201292      1.00800 ; qtot -2.948
    45   HN     1   MOL    H9   45     0.303927      1.00800 ; qtot -2.644
    46   H4     1   MOL   H10   46     0.207839      1.00800 ; qtot -2.436
    47   HA     1   MOL   H11   47     0.199949      1.00800 ; qtot -2.236
    48   HA     1   MOL   H12   48     0.167383      1.00800 ; qtot -2.069
    49   HA     1   MOL   H13   49     0.192797      1.00800 ; qtot -1.876
    50   HA     1   MOL   H14   50     0.157194      1.00800 ; qtot -1.719
    51   HA     1   MOL   H15   51     0.148704      1.00800 ; qtot -1.570
    52   HN     1   MOL   H16   52     0.436942      1.00800 ; qtot -1.133
    53   HN     1   MOL   H17   53     0.436942      1.00800 ; qtot -0.696
    54   HA     1   MOL   H18   54     0.194373      1.00800 ; qtot -0.502
    55   HA     1   MOL   H19   55     0.194373      1.00800 ; qtot -0.307
    56   HA     1   MOL   H20   56     0.153642      1.00800 ; qtot -0.154
    57   HA     1   MOL   H21   57     0.153642      1.00800 ; qtot 0.000

[ bonds ]
;   ai     aj funct   r             k
     1      4   1    1.6723e-01    2.6535e+05 ;     S1 - N1    
     1     17   1    1.4533e-01    4.2903e+05 ;     S1 - O1    
     1     18   1    1.4533e-01    4.2903e+05 ;     S1 - O2    
     1     29   1    1.6723e-01    2.6535e+05 ;     S1 - N5    
     2      3   1    1.5375e-01    2.5179e+05 ;     C1 - C2    
     2      5   1    1.5241e-01    2.6192e+05 ;     C1 - C3    
     2      9   1    1.5375e-01    2.5179e+05 ;     C1 - C6    
     2     37   1    1.0969e-01    2.7665e+05 ;     C1 - H1    
     3      7   1    1.5241e-01    2.6192e+05 ;     C2 - C4    
     3      8   1    1.5375e-01    2.5179e+05 ;     C2 - C5    
     3     38   1    1.0969e-01    2.7665e+05 ;     C2 - H2    
     4      8   1    1.4647e-01    2.7271e+05 ;     N1 - C5    
     4      9   1    1.4647e-01    2.7271e+05 ;     N1 - C6    
     5     12   1    1.3789e-01    3.5782e+05 ;     C3 - N3    
     5     20   1    1.2183e-01    5.3363e+05 ;     C3 - O3    
     6     10   1    1.3789e-01    3.5782e+05 ;     N2 - C7    
     6     11   1    1.4121e-01    3.2150e+05 ;     N2 - C8    
     6     19   1    1.3807e-01    3.5572e+05 ;     N2 - C12   
     7     14   1    1.3789e-01    3.5782e+05 ;     C4 - N4    
     7     21   1    1.2183e-01    5.3363e+05 ;     C4 - O4    
     8     39   1    1.0969e-01    2.7665e+05 ;     C5 - H3    
     8     40   1    1.0969e-01    2.7665e+05 ;     C5 - H4    
     9     41   1    1.0969e-01    2.7665e+05 ;     C6 - H5    
     9     42   1    1.0969e-01    2.7665e+05 ;     C6 - H6    
    10     22   1    1.4676e-01    3.1045e+05 ;     C7 - C13   
    10     23   1    1.2183e-01    5.3363e+05 ;     C7 - O5    
    11     13   1    1.3984e-01    3.8585e+05 ;     C8 - C9    
    11     24   1    1.3984e-01    3.8585e+05 ;     C8 - C14   
    12     15   1    1.4121e-01    3.2150e+05 ;     N3 - C10   
    12     43   1    1.0129e-01    3.3740e+05 ;     N3 - H7    
    13     16   1    1.3984e-01    3.8585e+05 ;     C9 - C11   
    13     44   1    1.0860e-01    2.8937e+05 ;     C9 - H8    
    14     28   1    1.4121e-01    3.2150e+05 ;     N4 - C18   
    14     45   1    1.0129e-01    3.3740e+05 ;     N4 - H9    
    15     16   1    1.3984e-01    3.8585e+05 ;    C10 - C11   
    15     25   1    1.3984e-01    3.8585e+05 ;    C10 - C15   
    16     30   1    1.3490e-01    2.9941e+05 ;    C11 - F1    
    19     26   1    1.3729e-01    4.1915e+05 ;    C12 - C16   
    19     46   1    1.0817e-01    2.9455e+05 ;    C12 - H10   
    22     27   1    1.3729e-01    4.1915e+05 ;    C13 - C17   
    22     47   1    1.0837e-01    2.9213e+05 ;    C13 - H11   
    24     25   1    1.3984e-01    3.8585e+05 ;    C14 - C15   
    24     48   1    1.0860e-01    2.8937e+05 ;    C14 - H12   
    25     49   1    1.0860e-01    2.8937e+05 ;    C15 - H13   
    26     27   1    1.4278e-01    3.5129e+05 ;    C16 - C17   
    26     50   1    1.0837e-01    2.9213e+05 ;    C16 - H14   
    27     51   1    1.0837e-01    2.9213e+05 ;    C17 - H15   
    28     33   1    1.3984e-01    3.8585e+05 ;    C18 - C20   
    28     34   1    1.3984e-01    3.8585e+05 ;    C18 - C21   
    29     52   1    1.0190e-01    3.2836e+05 ;     N5 - H16   
    29     53   1    1.0190e-01    3.2836e+05 ;     N5 - H17   
    31     32   1    1.7502e-01    2.5573e+05 ;    C19 - CL1   
    31     35   1    1.3984e-01    3.8585e+05 ;    C19 - C22   
    31     36   1    1.3984e-01    3.8585e+05 ;    C19 - C23   
    33     36   1    1.3984e-01    3.8585e+05 ;    C20 - C23   
    33     54   1    1.0860e-01    2.8937e+05 ;    C20 - H18   
    34     35   1    1.3984e-01    3.8585e+05 ;    C21 - C22   
    34     55   1    1.0860e-01    2.8937e+05 ;    C21 - H19   
    35     56   1    1.0860e-01    2.8937e+05 ;    C22 - H20   
    36     57   1    1.0860e-01    2.8937e+05 ;    C23 - H21   

[ pairs ]
;   ai     aj    funct
     1      2      1 ;     S1 - C1    
     1      3      1 ;     S1 - C2    
     1     39      1 ;     S1 - H3    
     1     40      1 ;     S1 - H4    
     1     41      1 ;     S1 - H5    
     1     42      1 ;     S1 - H6    
     2     14      1 ;     C1 - N4    
     2     15      1 ;     C1 - C10   
     2     21      1 ;     C1 - O4    
     2     39      1 ;     C1 - H3    
     2     40      1 ;     C1 - H4    
     2     43      1 ;     C1 - H7    
     3     12      1 ;     C2 - N3    
     3     20      1 ;     C2 - O3    
     3     28      1 ;     C2 - C18   
     3     41      1 ;     C2 - H5    
     3     42      1 ;     C2 - H6    
     3     45      1 ;     C2 - H9    
     4      5      1 ;     N1 - C3    
     4      7      1 ;     N1 - C4    
     4     37      1 ;     N1 - H1    
     4     38      1 ;     N1 - H2    
     4     52      1 ;     N1 - H16   
     4     53      1 ;     N1 - H17   
     5      7      1 ;     C3 - C4    
     5      8      1 ;     C3 - C5    
     5     16      1 ;     C3 - C11   
     5     25      1 ;     C3 - C15   
     5     38      1 ;     C3 - H2    
     5     41      1 ;     C3 - H5    
     5     42      1 ;     C3 - H6    
     6     16      1 ;     N2 - C11   
     6     25      1 ;     N2 - C15   
     6     27      1 ;     N2 - C17   
     6     44      1 ;     N2 - H8    
     6     47      1 ;     N2 - H11   
     6     48      1 ;     N2 - H12   
     6     50      1 ;     N2 - H14   
     7      9      1 ;     C4 - C6    
     7     33      1 ;     C4 - C20   
     7     34      1 ;     C4 - C21   
     7     37      1 ;     C4 - H1    
     7     39      1 ;     C4 - H3    
     7     40      1 ;     C4 - H4    
     8     14      1 ;     C5 - N4    
     8     21      1 ;     C5 - O4    
     8     37      1 ;     C5 - H1    
     8     41      1 ;     C5 - H5    
     8     42      1 ;     C5 - H6    
     9     12      1 ;     C6 - N3    
     9     20      1 ;     C6 - O3    
     9     38      1 ;     C6 - H2    
     9     39      1 ;     C6 - H3    
     9     40      1 ;     C6 - H4    
    10     13      1 ;     C7 - C9    
    10     24      1 ;     C7 - C14   
    10     26      1 ;     C7 - C16   
    10     46      1 ;     C7 - H10   
    10     51      1 ;     C7 - H15   
    11     15      1 ;     C8 - C10   
    11     22      1 ;     C8 - C13   
    11     23      1 ;     C8 - O5    
    11     26      1 ;     C8 - C16   
    11     30      1 ;     C8 - F1    
    11     46      1 ;     C8 - H10   
    11     49      1 ;     C8 - H13   
    12     13      1 ;     N3 - C9    
    12     24      1 ;     N3 - C14   
    12     30      1 ;     N3 - F1    
    12     37      1 ;     N3 - H1    
    12     49      1 ;     N3 - H13   
    13     19      1 ;     C9 - C12   
    13     25      1 ;     C9 - C15   
    13     48      1 ;     C9 - H12   
    14     35      1 ;     N4 - C22   
    14     36      1 ;     N4 - C23   
    14     38      1 ;     N4 - H2    
    14     54      1 ;     N4 - H18   
    14     55      1 ;     N4 - H19   
    15     20      1 ;    C10 - O3    
    15     44      1 ;    C10 - H8    
    15     48      1 ;    C10 - H12   
    16     24      1 ;    C11 - C14   
    16     43      1 ;    C11 - H7    
    16     49      1 ;    C11 - H13   
    17      8      1 ;     O1 - C5    
    17      9      1 ;     O1 - C6    
    17     52      1 ;     O1 - H16   
    17     53      1 ;     O1 - H17   
    18      8      1 ;     O2 - C5    
    18      9      1 ;     O2 - C6    
    18     52      1 ;     O2 - H16   
    18     53      1 ;     O2 - H17   
    19     22      1 ;    C12 - C13   
    19     23      1 ;    C12 - O5    
    19     24      1 ;    C12 - C14   
    19     51      1 ;    C12 - H15   
    20     37      1 ;     O3 - H1    
    20     43      1 ;     O3 - H7    
    21     28      1 ;     O4 - C18   
    21     38      1 ;     O4 - H2    
    21     45      1 ;     O4 - H9    
    22     50      1 ;    C13 - H14   
    23     27      1 ;     O5 - C17   
    23     47      1 ;     O5 - H11   
    24     44      1 ;    C14 - H8    
    25     30      1 ;    C15 - F1    
    25     43      1 ;    C15 - H7    
    26     47      1 ;    C16 - H11   
    27     46      1 ;    C17 - H10   
    28     31      1 ;    C18 - C19   
    28     56      1 ;    C18 - H20   
    28     57      1 ;    C18 - H21   
    29      8      1 ;     N5 - C5    
    29      9      1 ;     N5 - C6    
    30     44      1 ;     F1 - H8    
    31     54      1 ;    C19 - H18   
    31     55      1 ;    C19 - H19   
    32     33      1 ;    CL1 - C20   
    32     34      1 ;    CL1 - C21   
    32     56      1 ;    CL1 - H20   
    32     57      1 ;    CL1 - H21   
    33     35      1 ;    C20 - C22   
    33     45      1 ;    C20 - H9    
    33     55      1 ;    C20 - H19   
    34     36      1 ;    C21 - C23   
    34     45      1 ;    C21 - H9    
    34     54      1 ;    C21 - H18   
    35     57      1 ;    C22 - H21   
    36     56      1 ;    C23 - H20   
    37     38      1 ;     H1 - H2    
    37     41      1 ;     H1 - H5    
    37     42      1 ;     H1 - H6    
    38     39      1 ;     H2 - H3    
    38     40      1 ;     H2 - H4    
    46     50      1 ;    H10 - H14   
    47     51      1 ;    H11 - H15   
    48     49      1 ;    H12 - H13   
    50     51      1 ;    H14 - H15   
    54     57      1 ;    H18 - H21   
    55     56      1 ;    H19 - H20   

[ angles ]
;   ai     aj     ak    funct   theta         cth
     1      4      8      1    1.1655e+02    5.2551e+02 ;     S1 - N1     - C5    
     1      4      9      1    1.1655e+02    5.2551e+02 ;     S1 - N1     - C6    
     1     29     52      1    1.0960e+02    3.7489e+02 ;     S1 - N5     - H16   
     1     29     53      1    1.0960e+02    3.7489e+02 ;     S1 - N5     - H17   
     2      3      7      1    1.1104e+02    5.2969e+02 ;     C1 - C2     - C4    
     2      3      8      1    1.1151e+02    5.2635e+02 ;     C1 - C2     - C5    
     2      3     38      1    1.0980e+02    3.8744e+02 ;     C1 - C2     - H2    
     2      5     12      1    1.1518e+02    5.5898e+02 ;     C1 - C3     - N3    
     2      5     20      1    1.2320e+02    5.6400e+02 ;     C1 - C3     - O3    
     2      9      4      1    1.1104e+02    5.5229e+02 ;     C1 - C6     - N1    
     2      9     41      1    1.0956e+02    3.8828e+02 ;     C1 - C6     - H5    
     2      9     42      1    1.0956e+02    3.8828e+02 ;     C1 - C6     - H6    
     3      2      5      1    1.1104e+02    5.2969e+02 ;     C2 - C1     - C3    
     3      2      9      1    1.1151e+02    5.2635e+02 ;     C2 - C1     - C6    
     3      2     37      1    1.0980e+02    3.8744e+02 ;     C2 - C1     - H1    
     3      7     14      1    1.1518e+02    5.5898e+02 ;     C2 - C4     - N4    
     3      7     21      1    1.2320e+02    5.6400e+02 ;     C2 - C4     - O4    
     3      8      4      1    1.1104e+02    5.5229e+02 ;     C2 - C5     - N1    
     3      8     39      1    1.0956e+02    3.8828e+02 ;     C2 - C5     - H3    
     3      8     40      1    1.0956e+02    3.8828e+02 ;     C2 - C5     - H4    
     4      1     17      1    1.0743e+02    5.9580e+02 ;     N1 - S1     - O1    
     4      1     18      1    1.0743e+02    5.9580e+02 ;     N1 - S1     - O2    
     4      1     29      1    9.8440e+01    5.8409e+02 ;     N1 - S1     - N5    
     4      8     39      1    1.0988e+02    4.1422e+02 ;     N1 - C5     - H3    
     4      8     40      1    1.0988e+02    4.1422e+02 ;     N1 - C5     - H4    
     4      9     41      1    1.0988e+02    4.1422e+02 ;     N1 - C6     - H5    
     4      9     42      1    1.0988e+02    4.1422e+02 ;     N1 - C6     - H6    
     5      2      9      1    1.1104e+02    5.2969e+02 ;     C3 - C1     - C6    
     5      2     37      1    1.0877e+02    3.9246e+02 ;     C3 - C1     - H1    
     5     12     15      1    1.2371e+02    5.3388e+02 ;     C3 - N3     - C10   
     5     12     43      1    1.1755e+02    4.0417e+02 ;     C3 - N3     - H7    
     6     10     22      1    1.1270e+02    5.7823e+02 ;     N2 - C7     - C13   
     6     10     23      1    1.2305e+02    6.2091e+02 ;     N2 - C7     - O5    
     6     11     13      1    1.2019e+02    5.6819e+02 ;     N2 - C8     - C9    
     6     11     24      1    1.2019e+02    5.6819e+02 ;     N2 - C8     - C14   
     6     19     26      1    1.2133e+02    5.7656e+02 ;     N2 - C12    - C16   
     6     19     46      1    1.1569e+02    4.2509e+02 ;     N2 - C12    - H10   
     7      3      8      1    1.1104e+02    5.2969e+02 ;     C4 - C2     - C5    
     7      3     38      1    1.0877e+02    3.9246e+02 ;     C4 - C2     - H2    
     7     14     28      1    1.2371e+02    5.3388e+02 ;     C4 - N4     - C18   
     7     14     45      1    1.1755e+02    4.0417e+02 ;     C4 - N4     - H9    
     8      3     38      1    1.0980e+02    3.8744e+02 ;     C5 - C2     - H2    
     8      4      9      1    1.1235e+02    5.3388e+02 ;     C5 - N1     - C6    
     9      2     37      1    1.0980e+02    3.8744e+02 ;     C6 - C1     - H1    
    10      6     11      1    1.2371e+02    5.3388e+02 ;     C7 - N2     - C8    
    10      6     19      1    1.2327e+02    5.4141e+02 ;     C7 - N2     - C12   
    10     22     27      1    1.2135e+02    5.4476e+02 ;     C7 - C13    - C17   
    10     22     47      1    1.1664e+02    3.9246e+02 ;     C7 - C13    - H11   
    11      6     19      1    1.1401e+02    5.5564e+02 ;     C8 - N2     - C12   
    11     13     16      1    1.2002e+02    5.5731e+02 ;     C8 - C9     - C11   
    11     13     44      1    1.1988e+02    4.0334e+02 ;     C8 - C9     - H8    
    11     24     25      1    1.2002e+02    5.5731e+02 ;     C8 - C14    - C15   
    11     24     48      1    1.1988e+02    4.0334e+02 ;     C8 - C14    - H12   
    12      5     20      1    1.2305e+02    6.2091e+02 ;     N3 - C3     - O3    
    12     15     16      1    1.2019e+02    5.6819e+02 ;     N3 - C10    - C11   
    12     15     25      1    1.2019e+02    5.6819e+02 ;     N3 - C10    - C15   
    13     11     24      1    1.2002e+02    5.5731e+02 ;     C9 - C8     - C14   
    13     16     15      1    1.2002e+02    5.5731e+02 ;     C9 - C11    - C10   
    13     16     30      1    1.1896e+02    5.6149e+02 ;     C9 - C11    - F1    
    14      7     21      1    1.2305e+02    6.2091e+02 ;     N4 - C4     - O4    
    14     28     33      1    1.2019e+02    5.6819e+02 ;     N4 - C18    - C20   
    14     28     34      1    1.2019e+02    5.6819e+02 ;     N4 - C18    - C21   
    15     12     43      1    1.1600e+02    3.9832e+02 ;    C10 - N3     - H7    
    15     16     30      1    1.1896e+02    5.6149e+02 ;    C10 - C11    - F1    
    15     25     24      1    1.2002e+02    5.5731e+02 ;    C10 - C15    - C14   
    15     25     49      1    1.1988e+02    4.0334e+02 ;    C10 - C15    - H13   
    16     13     44      1    1.1988e+02    4.0334e+02 ;    C11 - C9     - H8    
    16     15     25      1    1.2002e+02    5.5731e+02 ;    C11 - C10    - C15   
    17      1     18      1    1.2005e+02    6.1588e+02 ;     O1 - S1     - O2    
    17      1     29      1    1.0743e+02    5.9580e+02 ;     O1 - S1     - N5    
    18      1     29      1    1.0743e+02    5.9580e+02 ;     O2 - S1     - N5    
    19     26     27      1    1.1419e+02    5.7070e+02 ;    C12 - C16    - C17   
    19     26     50      1    1.2176e+02    4.0585e+02 ;    C12 - C16    - H14   
    22     10     23      1    1.2393e+02    5.7823e+02 ;    C13 - C7     - O5    
    22     27     26      1    1.1419e+02    5.7070e+02 ;    C13 - C17    - C16   
    22     27     51      1    1.2176e+02    4.0585e+02 ;    C13 - C17    - H15   
    24     25     49      1    1.1988e+02    4.0334e+02 ;    C14 - C15    - H13   
    25     24     48      1    1.1988e+02    4.0334e+02 ;    C15 - C14    - H12   
    26     19     46      1    1.2848e+02    3.9581e+02 ;    C16 - C12    - H10   
    26     27     51      1    1.2107e+02    3.9413e+02 ;    C16 - C17    - H15   
    27     22     47      1    1.2176e+02    4.0585e+02 ;    C17 - C13    - H11   
    27     26     50      1    1.2107e+02    3.9413e+02 ;    C17 - C16    - H14   
    28     14     45      1    1.1600e+02    3.9832e+02 ;    C18 - N4     - H9    
    28     33     36      1    1.2002e+02    5.5731e+02 ;    C18 - C20    - C23   
    28     33     54      1    1.1988e+02    4.0334e+02 ;    C18 - C20    - H18   
    28     34     35      1    1.2002e+02    5.5731e+02 ;    C18 - C21    - C22   
    28     34     55      1    1.1988e+02    4.0334e+02 ;    C18 - C21    - H19   
    31     35     34      1    1.2002e+02    5.5731e+02 ;    C19 - C22    - C21   
    31     35     56      1    1.1988e+02    4.0334e+02 ;    C19 - C22    - H20   
    31     36     33      1    1.2002e+02    5.5731e+02 ;    C19 - C23    - C20   
    31     36     57      1    1.1988e+02    4.0334e+02 ;    C19 - C23    - H21   
    32     31     35      1    1.1939e+02    4.8451e+02 ;    CL1 - C19    - C22   
    32     31     36      1    1.1939e+02    4.8451e+02 ;    CL1 - C19    - C23   
    33     28     34      1    1.2002e+02    5.5731e+02 ;    C20 - C18    - C21   
    33     36     57      1    1.1988e+02    4.0334e+02 ;    C20 - C23    - H21   
    34     35     56      1    1.1988e+02    4.0334e+02 ;    C21 - C22    - H20   
    35     31     36      1    1.2002e+02    5.5731e+02 ;    C22 - C19    - C23   
    35     34     55      1    1.1988e+02    4.0334e+02 ;    C22 - C21    - H19   
    36     33     54      1    1.1988e+02    4.0334e+02 ;    C23 - C20    - H18   
    39      8     40      1    1.0846e+02    3.2803e+02 ;     H3 - C5     - H4    
    41      9     42      1    1.0846e+02    3.2803e+02 ;     H5 - C6     - H6    
    52     29     53      1    1.0640e+02    3.4644e+02 ;    H16 - N5     - H17   

[ dihedrals ] ; propers
; treated as RBs in GROMACS to use combine multiple AMBER torsions per quartet
;    I      j      k      l   func    C0         C1         C2         C3         C4         C5
     1      4      8      3      3    1.25520    3.76560    0.00000   -5.02080    0.00000    0.00000 ;     S1-    N1-    C5-    C2
     1      4      8     39      3    1.25520    3.76560    0.00000   -5.02080    0.00000    0.00000 ;     S1-    N1-    C5-    H3
     1      4      8     40      3    1.25520    3.76560    0.00000   -5.02080    0.00000    0.00000 ;     S1-    N1-    C5-    H4
     1      4      9      2      3    1.25520    3.76560    0.00000   -5.02080    0.00000    0.00000 ;     S1-    N1-    C6-    C1
     1      4      9     41      3    1.25520    3.76560    0.00000   -5.02080    0.00000    0.00000 ;     S1-    N1-    C6-    H5
     1      4      9     42      3    1.25520    3.76560    0.00000   -5.02080    0.00000    0.00000 ;     S1-    N1-    C6-    H6
     2      3      7     14      3    0.83680    0.00000   -2.76144    0.00000    3.34720    0.00000 ;     C1-    C2-    C4-    N4
     2      3      7     21      3    0.00000    0.00000    0.00000    0.00000    0.00000    0.00000 ;     C1-    C2-    C4-    O4
     2      3      8      4      3    0.65084    1.95253    0.00000   -2.60338    0.00000    0.00000 ;     C1-    C2-    C5-    N1
     2      3      8     39      3    0.65084    1.95253    0.00000   -2.60338    0.00000    0.00000 ;     C1-    C2-    C5-    H3
     2      3      8     40      3    0.65084    1.95253    0.00000   -2.60338    0.00000    0.00000 ;     C1-    C2-    C5-    H4
     2      5     12     15      3   20.92000    0.00000  -20.92000    0.00000    0.00000    0.00000 ;     C1-    C3-    N3-   C10
     2      5     12     43      3   20.92000    0.00000  -20.92000    0.00000    0.00000    0.00000 ;     C1-    C3-    N3-    H7
     2      9      4      8      3    5.27184    3.76560   -4.01664   -5.02080    0.00000    0.00000 ;     C1-    C6-    N1-    C5
     3      2      5     12      3    0.83680    0.00000   -2.76144    0.00000    3.34720    0.00000 ;     C2-    C1-    C3-    N3
     3      2      5     20      3    0.00000    0.00000    0.00000    0.00000    0.00000    0.00000 ;     C2-    C1-    C3-    O3
     3      2      9      4      3    0.65084    1.95253    0.00000   -2.60338    0.00000    0.00000 ;     C2-    C1-    C6-    N1
     3      2      9     41      3    0.65084    1.95253    0.00000   -2.60338    0.00000    0.00000 ;     C2-    C1-    C6-    H5
     3      2      9     42      3    0.65084    1.95253    0.00000   -2.60338    0.00000    0.00000 ;     C2-    C1-    C6-    H6
     3      7     14     28      3   20.92000    0.00000  -20.92000    0.00000    0.00000    0.00000 ;     C2-    C4-    N4-   C18
     3      7     14     45      3   20.92000    0.00000  -20.92000    0.00000    0.00000    0.00000 ;     C2-    C4-    N4-    H9
     3      8      4      9      3    5.27184    3.76560   -4.01664   -5.02080    0.00000    0.00000 ;     C2-    C5-    N1-    C6
     4      1     29     52      3    0.00000    0.00000   26.21973    0.00000    0.00000    0.00000 ;     N1-    S1-    N5-   H16
     4      1     29     53      3    0.00000    0.00000   26.21973    0.00000    0.00000    0.00000 ;     N1-    S1-    N5-   H17
     4      8      3      7      3    0.65084    1.95253    0.00000   -2.60338    0.00000    0.00000 ;     N1-    C5-    C2-    C4
     4      8      3     38      3    0.65084    1.95253    0.00000   -2.60338    0.00000    0.00000 ;     N1-    C5-    C2-    H2
     4      9      2      5      3    0.65084    1.95253    0.00000   -2.60338    0.00000    0.00000 ;     N1-    C6-    C1-    C3
     4      9      2     37      3    0.65084    1.95253    0.00000   -2.60338    0.00000    0.00000 ;     N1-    C6-    C1-    H1
     5      2      3      7      3    0.65084    1.95253    0.00000   -2.60338    0.00000    0.00000 ;     C3-    C1-    C2-    C4
     5      2      3      8      3    0.65084    1.95253    0.00000   -2.60338    0.00000    0.00000 ;     C3-    C1-    C2-    C5
     5      2      3     38      3    0.65084    1.95253    0.00000   -2.60338    0.00000    0.00000 ;     C3-    C1-    C2-    H2
     5      2      9     41      3    0.65084    1.95253    0.00000   -2.60338    0.00000    0.00000 ;     C3-    C1-    C6-    H5
     5      2      9     42      3    0.65084    1.95253    0.00000   -2.60338    0.00000    0.00000 ;     C3-    C1-    C6-    H6
     5     12     15     16      3    3.76560    0.00000   -3.76560    0.00000    0.00000    0.00000 ;     C3-    N3-   C10-   C11
     5     12     15     25      3    3.76560    0.00000   -3.76560    0.00000    0.00000    0.00000 ;     C3-    N3-   C10-   C15
     6     10     22     27      3   24.05800    0.00000  -24.05800    0.00000    0.00000    0.00000 ;     N2-    C7-   C13-   C17
     6     10     22     47      3   24.05800    0.00000  -24.05800    0.00000    0.00000    0.00000 ;     N2-    C7-   C13-   H11
     6     11     13     16      3   30.33400    0.00000  -30.33400    0.00000    0.00000    0.00000 ;     N2-    C8-    C9-   C11
     6     11     13     44      3   30.33400    0.00000  -30.33400    0.00000    0.00000    0.00000 ;     N2-    C8-    C9-    H8
     6     11     24     25      3   30.33400    0.00000  -30.33400    0.00000    0.00000    0.00000 ;     N2-    C8-   C14-   C15
     6     11     24     48      3   30.33400    0.00000  -30.33400    0.00000    0.00000    0.00000 ;     N2-    C8-   C14-   H12
     6     19     26     27      3   33.47200    0.00000  -33.47200    0.00000    0.00000    0.00000 ;     N2-   C12-   C16-   C17
     6     19     26     50      3   33.47200    0.00000  -33.47200    0.00000    0.00000    0.00000 ;     N2-   C12-   C16-   H14
     7      3      2      9      3    0.65084    1.95253    0.00000   -2.60338    0.00000    0.00000 ;     C4-    C2-    C1-    C6
     7      3      2     37      3    0.65084    1.95253    0.00000   -2.60338    0.00000    0.00000 ;     C4-    C2-    C1-    H1
     7      3      8     39      3    0.65084    1.95253    0.00000   -2.60338    0.00000    0.00000 ;     C4-    C2-    C5-    H3
     7      3      8     40      3    0.65084    1.95253    0.00000   -2.60338    0.00000    0.00000 ;     C4-    C2-    C5-    H4
     7     14     28     33      3    3.76560    0.00000   -3.76560    0.00000    0.00000    0.00000 ;     C4-    N4-   C18-   C20
     7     14     28     34      3    3.76560    0.00000   -3.76560    0.00000    0.00000    0.00000 ;     C4-    N4-   C18-   C21
     8      3      2      9      3    3.68192    3.09616   -2.09200   -3.01248    0.00000    0.00000 ;     C5-    C2-    C1-    C6
     8      3      2     37      3    0.66944    2.00832    0.00000   -2.67776    0.00000    0.00000 ;     C5-    C2-    C1-    H1
     8      3      7     14      3    0.83680    0.00000   -2.76144    0.00000    3.34720    0.00000 ;     C5-    C2-    C4-    N4
     8      3      7     21      3    0.00000    0.00000    0.00000    0.00000    0.00000    0.00000 ;     C5-    C2-    C4-    O4
     8      4      9     41      3    1.25520    3.76560    0.00000   -5.02080    0.00000    0.00000 ;     C5-    N1-    C6-    H5
     8      4      9     42      3    1.25520    3.76560    0.00000   -5.02080    0.00000    0.00000 ;     C5-    N1-    C6-    H6
     9      2      3     38      3    0.66944    2.00832    0.00000   -2.67776    0.00000    0.00000 ;     C6-    C1-    C2-    H2
     9      2      5     12      3    0.83680    0.00000   -2.76144    0.00000    3.34720    0.00000 ;     C6-    C1-    C3-    N3
     9      2      5     20      3    0.00000    0.00000    0.00000    0.00000    0.00000    0.00000 ;     C6-    C1-    C3-    O3
     9      4      8     39      3    1.25520    3.76560    0.00000   -5.02080    0.00000    0.00000 ;     C6-    N1-    C5-    H3
     9      4      8     40      3    1.25520    3.76560    0.00000   -5.02080    0.00000    0.00000 ;     C6-    N1-    C5-    H4
    10      6     11     13      3    3.76560    0.00000   -3.76560    0.00000    0.00000    0.00000 ;     C7-    N2-    C8-    C9
    10      6     11     24      3    3.76560    0.00000   -3.76560    0.00000    0.00000    0.00000 ;     C7-    N2-    C8-   C14
    10      6     19     26      3   13.80720    0.00000  -13.80720    0.00000    0.00000    0.00000 ;     C7-    N2-   C12-   C16
    10      6     19     46      3   13.80720    0.00000  -13.80720    0.00000    0.00000    0.00000 ;     C7-    N2-   C12-   H10
    10     22     27     26      3   33.47200    0.00000  -33.47200    0.00000    0.00000    0.00000 ;     C7-   C13-   C17-   C16
    10     22     27     51      3   33.47200    0.00000  -33.47200    0.00000    0.00000    0.00000 ;     C7-   C13-   C17-   H15
    11      6     10     22      3   20.92000    0.00000  -20.92000    0.00000    0.00000    0.00000 ;     C8-    N2-    C7-   C13
    11      6     10     23      3   20.92000    0.00000  -20.92000    0.00000    0.00000    0.00000 ;     C8-    N2-    C7-    O5
    11      6     19     26      3   13.80720    0.00000  -13.80720    0.00000    0.00000    0.00000 ;     C8-    N2-   C12-   C16
    11      6     19     46      3   13.80720    0.00000  -13.80720    0.00000    0.00000    0.00000 ;     C8-    N2-   C12-   H10
    11     13     16     15      3   30.33400    0.00000  -30.33400    0.00000    0.00000    0.00000 ;     C8-    C9-   C11-   C10
    11     13     16     30      3   30.33400    0.00000  -30.33400    0.00000    0.00000    0.00000 ;     C8-    C9-   C11-    F1
    11     24     25     15      3   30.33400    0.00000  -30.33400    0.00000    0.00000    0.00000 ;     C8-   C14-   C15-   C10
    11     24     25     49      3   30.33400    0.00000  -30.33400    0.00000    0.00000    0.00000 ;     C8-   C14-   C15-   H13
    12      5      2     37      3    0.00000    0.00000    0.00000    0.00000    0.00000    0.00000 ;     N3-    C3-    C1-    H1
    12     15     16     13      3   30.33400    0.00000  -30.33400    0.00000    0.00000    0.00000 ;     N3-   C10-   C11-    C9
    12     15     16     30      3   30.33400    0.00000  -30.33400    0.00000    0.00000    0.00000 ;     N3-   C10-   C11-    F1
    12     15     25     24      3   30.33400    0.00000  -30.33400    0.00000    0.00000    0.00000 ;     N3-   C10-   C15-   C14
    12     15     25     49      3   30.33400    0.00000  -30.33400    0.00000    0.00000    0.00000 ;     N3-   C10-   C15-   H13
    13     11      6     19      3    3.76560    0.00000   -3.76560    0.00000    0.00000    0.00000 ;     C9-    C8-    N2-   C12
    13     11     24     25      3   30.33400    0.00000  -30.33400    0.00000    0.00000    0.00000 ;     C9-    C8-   C14-   C15
    13     11     24     48      3   30.33400    0.00000  -30.33400    0.00000    0.00000    0.00000 ;     C9-    C8-   C14-   H12
    13     16     15     25      3   30.33400    0.00000  -30.33400    0.00000    0.00000    0.00000 ;     C9-   C11-   C10-   C15
    14      7      3     38      3    0.00000    0.00000    0.00000    0.00000    0.00000    0.00000 ;     N4-    C4-    C2-    H2
    14     28     33     36      3   30.33400    0.00000  -30.33400    0.00000    0.00000    0.00000 ;     N4-   C18-   C20-   C23
    14     28     33     54      3   30.33400    0.00000  -30.33400    0.00000    0.00000    0.00000 ;     N4-   C18-   C20-   H18
    14     28     34     35      3   30.33400    0.00000  -30.33400    0.00000    0.00000    0.00000 ;     N4-   C18-   C21-   C22
    14     28     34     55      3   30.33400    0.00000  -30.33400    0.00000    0.00000    0.00000 ;     N4-   C18-   C21-   H19
    15     12      5     20      3   20.92000    0.00000  -20.92000    0.00000    0.00000    0.00000 ;    C10-    N3-    C3-    O3
    15     16     13     44      3   30.33400    0.00000  -30.33400    0.00000    0.00000    0.00000 ;    C10-   C11-    C9-    H8
    15     25     24     48      3   30.33400    0.00000  -30.33400    0.00000    0.00000    0.00000 ;    C10-   C15-   C14-   H12
    16     13     11     24      3   30.33400    0.00000  -30.33400    0.00000    0.00000    0.00000 ;    C11-    C9-    C8-   C14
    16     15     12     43      3    3.76560    0.00000   -3.76560    0.00000    0.00000    0.00000 ;    C11-   C10-    N3-    H7
    16     15     25     24      3   30.33400    0.00000  -30.33400    0.00000    0.00000    0.00000 ;    C11-   C10-   C15-   C14
    16     15     25     49      3   30.33400    0.00000  -30.33400    0.00000    0.00000    0.00000 ;    C11-   C10-   C15-   H13
    17      1      4      8      3    0.00000    0.00000   26.21973    0.00000    0.00000    0.00000 ;     O1-    S1-    N1-    C5
    17      1      4      9      3    0.00000    0.00000   26.21973    0.00000    0.00000    0.00000 ;     O1-    S1-    N1-    C6
    17      1     29     52      3    0.00000    0.00000   26.21973    0.00000    0.00000    0.00000 ;     O1-    S1-    N5-   H16
    17      1     29     53      3    0.00000    0.00000   26.21973    0.00000    0.00000    0.00000 ;     O1-    S1-    N5-   H17
    18      1      4      8      3    0.00000    0.00000   26.21973    0.00000    0.00000    0.00000 ;     O2-    S1-    N1-    C5
    18      1      4      9      3    0.00000    0.00000   26.21973    0.00000    0.00000    0.00000 ;     O2-    S1-    N1-    C6
    18      1     29     52      3    0.00000    0.00000   26.21973    0.00000    0.00000    0.00000 ;     O2-    S1-    N5-   H16
    18      1     29     53      3    0.00000    0.00000   26.21973    0.00000    0.00000    0.00000 ;     O2-    S1-    N5-   H17
    19      6     10     22      3   20.92000    0.00000  -20.92000    0.00000    0.00000    0.00000 ;    C12-    N2-    C7-   C13
    19      6     10     23      3   20.92000    0.00000  -20.92000    0.00000    0.00000    0.00000 ;    C12-    N2-    C7-    O5
    19      6     11     24      3    3.76560    0.00000   -3.76560    0.00000    0.00000    0.00000 ;    C12-    N2-    C8-   C14
    19     26     27     22      3   33.47200    0.00000  -33.47200    0.00000    0.00000    0.00000 ;    C12-   C16-   C17-   C13
    19     26     27     51      3   33.47200    0.00000  -33.47200    0.00000    0.00000    0.00000 ;    C12-   C16-   C17-   H15
    20      5      2     37      3    3.68192   -4.35136    0.00000    1.33888    0.00000    0.00000 ;     O3-    C3-    C1-    H1
    20      5     12     43      3   29.28800   -8.36800  -20.92000    0.00000    0.00000    0.00000 ;     O3-    C3-    N3-    H7
    21      7      3     38      3    3.68192   -4.35136    0.00000    1.33888    0.00000    0.00000 ;     O4-    C4-    C2-    H2
    21      7     14     28      3   20.92000    0.00000  -20.92000    0.00000    0.00000    0.00000 ;     O4-    C4-    N4-   C18
    21      7     14     45      3   29.28800   -8.36800  -20.92000    0.00000    0.00000    0.00000 ;     O4-    C4-    N4-    H9
    22     27     26     50      3   33.47200    0.00000  -33.47200    0.00000    0.00000    0.00000 ;    C13-   C17-   C16-   H14
    23     10     22     27      3   24.05800    0.00000  -24.05800    0.00000    0.00000    0.00000 ;     O5-    C7-   C13-   C17
    23     10     22     47      3   24.05800    0.00000  -24.05800    0.00000    0.00000    0.00000 ;     O5-    C7-   C13-   H11
    24     11     13     44      3   30.33400    0.00000  -30.33400    0.00000    0.00000    0.00000 ;    C14-    C8-    C9-    H8
    25     15     12     43      3    3.76560    0.00000   -3.76560    0.00000    0.00000    0.00000 ;    C15-   C10-    N3-    H7
    25     15     16     30      3   30.33400    0.00000  -30.33400    0.00000    0.00000    0.00000 ;    C15-   C10-   C11-    F1
    26     27     22     47      3   33.47200    0.00000  -33.47200    0.00000    0.00000    0.00000 ;    C16-   C17-   C13-   H11
    27     26     19     46      3   33.47200    0.00000  -33.47200    0.00000    0.00000    0.00000 ;    C17-   C16-   C12-   H10
    28     33     36     31      3   30.33400    0.00000  -30.33400    0.00000    0.00000    0.00000 ;    C18-   C20-   C23-   C19
    28     33     36     57      3   30.33400    0.00000  -30.33400    0.00000    0.00000    0.00000 ;    C18-   C20-   C23-   H21
    28     34     35     31      3   30.33400    0.00000  -30.33400    0.00000    0.00000    0.00000 ;    C18-   C21-   C22-   C19
    28     34     35     56      3   30.33400    0.00000  -30.33400    0.00000    0.00000    0.00000 ;    C18-   C21-   C22-   H20
    29      1      4      8      3    0.00000    0.00000   26.21973    0.00000    0.00000    0.00000 ;     N5-    S1-    N1-    C5
    29      1      4      9      3    0.00000    0.00000   26.21973    0.00000    0.00000    0.00000 ;     N5-    S1-    N1-    C6
    30     16     13     44      3   30.33400    0.00000  -30.33400    0.00000    0.00000    0.00000 ;     F1-   C11-    C9-    H8
    31     35     34     55      3   30.33400    0.00000  -30.33400    0.00000    0.00000    0.00000 ;    C19-   C22-   C21-   H19
    31     36     33     54      3   30.33400    0.00000  -30.33400    0.00000    0.00000    0.00000 ;    C19-   C23-   C20-   H18
    32     31     35     34      3   30.33400    0.00000  -30.33400    0.00000    0.00000    0.00000 ;    CL1-   C19-   C22-   C21
    32     31     35     56      3   30.33400    0.00000  -30.33400    0.00000    0.00000    0.00000 ;    CL1-   C19-   C22-   H20
    32     31     36     33      3   30.33400    0.00000  -30.33400    0.00000    0.00000    0.00000 ;    CL1-   C19-   C23-   C20
    32     31     36     57      3   30.33400    0.00000  -30.33400    0.00000    0.00000    0.00000 ;    CL1-   C19-   C23-   H21
    33     28     14     45      3    3.76560    0.00000   -3.76560    0.00000    0.00000    0.00000 ;    C20-   C18-    N4-    H9
    33     28     34     35      3   30.33400    0.00000  -30.33400    0.00000    0.00000    0.00000 ;    C20-   C18-   C21-   C22
    33     28     34     55      3   30.33400    0.00000  -30.33400    0.00000    0.00000    0.00000 ;    C20-   C18-   C21-   H19
    33     36     31     35      3   30.33400    0.00000  -30.33400    0.00000    0.00000    0.00000 ;    C20-   C23-   C19-   C22
    34     28     14     45      3    3.76560    0.00000   -3.76560    0.00000    0.00000    0.00000 ;    C21-   C18-    N4-    H9
    34     28     33     36      3   30.33400    0.00000  -30.33400    0.00000    0.00000    0.00000 ;    C21-   C18-   C20-   C23
    34     28     33     54      3   30.33400    0.00000  -30.33400    0.00000    0.00000    0.00000 ;    C21-   C18-   C20-   H18
    34     35     31     36      3   30.33400    0.00000  -30.33400    0.00000    0.00000    0.00000 ;    C21-   C22-   C19-   C23
    35     31     36     57      3   30.33400    0.00000  -30.33400    0.00000    0.00000    0.00000 ;    C22-   C19-   C23-   H21
    36     31     35     56      3   30.33400    0.00000  -30.33400    0.00000    0.00000    0.00000 ;    C23-   C19-   C22-   H20
    37      2      3     38      3    0.62760    1.88280    0.00000   -2.51040    0.00000    0.00000 ;     H1-    C1-    C2-    H2
    37      2      9     41      3    0.65084    1.95253    0.00000   -2.60338    0.00000    0.00000 ;     H1-    C1-    C6-    H5
    37      2      9     42      3    0.65084    1.95253    0.00000   -2.60338    0.00000    0.00000 ;     H1-    C1-    C6-    H6
    38      3      8     39      3    0.65084    1.95253    0.00000   -2.60338    0.00000    0.00000 ;     H2-    C2-    C5-    H3
    38      3      8     40      3    0.65084    1.95253    0.00000   -2.60338    0.00000    0.00000 ;     H2-    C2-    C5-    H4
    46     19     26     50      3   33.47200    0.00000  -33.47200    0.00000    0.00000    0.00000 ;    H10-   C12-   C16-   H14
    47     22     27     51      3   33.47200    0.00000  -33.47200    0.00000    0.00000    0.00000 ;    H11-   C13-   C17-   H15
    48     24     25     49      3   30.33400    0.00000  -30.33400    0.00000    0.00000    0.00000 ;    H12-   C14-   C15-   H13
    50     26     27     51      3   33.47200    0.00000  -33.47200    0.00000    0.00000    0.00000 ;    H14-   C16-   C17-   H15
    54     33     36     57      3   30.33400    0.00000  -30.33400    0.00000    0.00000    0.00000 ;    H18-   C20-   C23-   H21
    55     34     35     56      3   30.33400    0.00000  -30.33400    0.00000    0.00000    0.00000 ;    H19-   C21-   C22-   H20

[ dihedrals ] ; impropers
; treated as propers in GROMACS to use correct AMBER analytical function
;    I      j      k      l   func   phase     kd      pn
     2     12      5     20      1   180.00  43.93200   2 ;     C1-    N3-    C3-    O3
     3     14      7     21      1   180.00  43.93200   2 ;     C2-    N4-    C4-    O4
     5     15     12     43      1   180.00   4.60240   2 ;     C3-   C10-    N3-    H7
     7     28     14     45      1   180.00   4.60240   2 ;     C4-   C18-    N4-    H9
    10     11      6     19      1   180.00   4.60240   2 ;     C7-    C8-    N2-   C12
    10     27     22     47      1   180.00   4.60240   2 ;     C7-   C17-   C13-   H11
    11     16     13     44      1   180.00   4.60240   2 ;     C8-   C11-    C9-    H8
    11     25     24     48      1   180.00   4.60240   2 ;     C8-   C15-   C14-   H12
    13     15     16     30      1   180.00   4.60240   2 ;     C9-   C10-   C11-    F1
    13     24     11      6      1   180.00   4.60240   2 ;     C9-   C14-    C8-    N2
    15     24     25     49      1   180.00   4.60240   2 ;    C10-   C14-   C15-   H13
    16     25     15     12      1   180.00   4.60240   2 ;    C11-   C15-   C10-    N3
    19     27     26     50      1   180.00   4.60240   2 ;    C12-   C17-   C16-   H14
    22      6     10     23      1   180.00  43.93200   2 ;    C13-    N2-    C7-    O5
    22     26     27     51      1   180.00   4.60240   2 ;    C13-   C16-   C17-   H15
    26     46     19      6      1   180.00   4.60240   2 ;    C16-   H10-   C12-    N2
    28     35     34     55      1   180.00   4.60240   2 ;    C18-   C22-   C21-   H19
    28     36     33     54      1   180.00   4.60240   2 ;    C18-   C23-   C20-   H18
    31     33     36     57      1   180.00   4.60240   2 ;    C19-   C20-   C23-   H21
    31     34     35     56      1   180.00   4.60240   2 ;    C19-   C21-   C22-   H20
    33     34     28     14      1   180.00   4.60240   2 ;    C20-   C21-   C18-    N4
    35     36     31     32      1   180.00   4.60240   2 ;    C22-   C23-   C19-   CL1

; Include Position restraint file
#ifdef POSRES
#include "posre_MOL.itp"
#endif
