
[ moleculetype ]
;name            nrexcl
 MOL              3

[ atoms ]
;   nr  type  resi  res  atom  cgnr     charge      mass       ; qtot   bond_type
     1   CC     1   MOL    C1    1    -0.173587     12.01000 ; qtot -0.174
     2   C3     1   MOL    C2    2     0.583618     12.01000 ; qtot 0.410
     3   CA     1   MOL    C3    3     0.087672     12.01000 ; qtot 0.498
     4   CD     1   MOL    C4    4    -0.473696     12.01000 ; qtot 0.024
     5   CA     1   MOL    C5    5    -0.278959     12.01000 ; qtot -0.255
     6    C     1   MOL    C6    6     0.357619     12.01000 ; qtot 0.103
     7   C3     1   MOL    C7    7     0.411052     12.01000 ; qtot 0.514
     8    O     1   MOL    O1    8    -0.612319     16.00000 ; qtot -0.099
     9    C     1   MOL    C8    9     0.657390     12.01000 ; qtot 0.559
    10    O     1   MOL    O2   10    -0.582791     16.00000 ; qtot -0.024
    11   CA     1   MOL    C9   11     0.049375     12.01000 ; qtot 0.025
    12   NA     1   MOL    N1   12     0.097288     14.01000 ; qtot 0.123
    13   CA     1   MOL   C10   13    -0.208711     12.01000 ; qtot -0.086
    14   CA     1   MOL   C11   14     0.421398     12.01000 ; qtot 0.335
    15   C3     1   MOL   C12   15    -0.391156     12.01000 ; qtot -0.056
    16   C3     1   MOL   C13   16    -0.391156     12.01000 ; qtot -0.447
    17   CA     1   MOL   C14   17    -0.316451     12.01000 ; qtot -0.763
    18    N     1   MOL    N2   18    -0.729847     14.01000 ; qtot -1.493
    19   C3     1   MOL   C15   19     0.123845     12.01000 ; qtot -1.369
    20   C3     1   MOL   C16   20     0.123845     12.01000 ; qtot -1.246
    21    N     1   MOL    N3   21    -0.263590     14.01000 ; qtot -1.509
    22   CA     1   MOL   C17   22     0.515123     12.01000 ; qtot -0.994
    23   NB     1   MOL    N4   23    -0.629096     14.01000 ; qtot -1.623
    24   CA     1   MOL   C18   24     0.360776     12.01000 ; qtot -1.262
    25   CA     1   MOL   C19   25    -0.470418     12.01000 ; qtot -1.733
    26   CA     1   MOL   C20   26     0.339868     12.01000 ; qtot -1.393
    27   CA     1   MOL   C21   27    -0.527050     12.01000 ; qtot -1.920
    28   CG     1   MOL   C22   28     0.318512     12.01000 ; qtot -1.601
    29   N1     1   MOL    N5   29    -0.444118     14.01000 ; qtot -2.046
    30   C3     1   MOL   C23   30     0.180046     12.01000 ; qtot -1.866
    31   C3     1   MOL   C24   31     0.014806     12.01000 ; qtot -1.851
    32   C3     1   MOL   C25   32    -0.326292     12.01000 ; qtot -2.177
    33   C3     1   MOL   C26   33     0.014806     12.01000 ; qtot -2.162
    34   C3     1   MOL   C27   34     0.180046     12.01000 ; qtot -1.982
    35   C3     1   MOL   C28   35    -0.176312     12.01000 ; qtot -2.158
    36   H4     1   MOL    H1   36     0.184128      1.00800 ; qtot -1.974
    37   HC     1   MOL    H2   37    -0.064372      1.00800 ; qtot -2.039
    38   HA     1   MOL    H3   38     0.161468      1.00800 ; qtot -1.877
    39   HC     1   MOL    H4   39    -0.039353      1.00800 ; qtot -1.917
    40   HA     1   MOL    H5   40     0.167090      1.00800 ; qtot -1.750
    41   HC     1   MOL    H6   41     0.125302      1.00800 ; qtot -1.624
    42   HC     1   MOL    H7   42     0.125302      1.00800 ; qtot -1.499
    43   HC     1   MOL    H8   43     0.125302      1.00800 ; qtot -1.374
    44   HC     1   MOL    H9   44     0.125302      1.00800 ; qtot -1.248
    45   HA     1   MOL   H10   45     0.200972      1.00800 ; qtot -1.047
    46   HN     1   MOL   H11   46     0.349557      1.00800 ; qtot -0.698
    47   H1     1   MOL   H12   47     0.030507      1.00800 ; qtot -0.667
    48   H1     1   MOL   H13   48     0.030507      1.00800 ; qtot -0.637
    49   H1     1   MOL   H14   49     0.030507      1.00800 ; qtot -0.606
    50   H1     1   MOL   H15   50     0.030507      1.00800 ; qtot -0.576
    51   H4     1   MOL   H16   51     0.083566      1.00800 ; qtot -0.492
    52   HA     1   MOL   H17   52     0.218651      1.00800 ; qtot -0.274
    53   HA     1   MOL   H18   53     0.248024      1.00800 ; qtot -0.025
    54   HC     1   MOL   H19   54    -0.106854      1.00800 ; qtot -0.132
    55   HC     1   MOL   H20   55    -0.106854      1.00800 ; qtot -0.239
    56   HC     1   MOL   H21   56     0.001707      1.00800 ; qtot -0.237
    57   HC     1   MOL   H22   57     0.001707      1.00800 ; qtot -0.236
    58   HC     1   MOL   H23   58     0.095807      1.00800 ; qtot -0.140
    59   HC     1   MOL   H24   59     0.095807      1.00800 ; qtot -0.044
    60   HC     1   MOL   H25   60     0.001707      1.00800 ; qtot -0.042
    61   HC     1   MOL   H26   61     0.001707      1.00800 ; qtot -0.041
    62   HC     1   MOL   H27   62    -0.106854      1.00800 ; qtot -0.148
    63   HC     1   MOL   H28   63    -0.106854      1.00800 ; qtot -0.254
    64   H1     1   MOL   H29   64     0.084823      1.00800 ; qtot -0.170
    65   H1     1   MOL   H30   65     0.084823      1.00800 ; qtot -0.085
    66   H1     1   MOL   H31   66     0.084823      1.00800 ; qtot -0.000

[ bonds ]
;   ai     aj funct   r             k
     1      4   1    1.3729e-01    4.1915e+05 ;     C1 - C4    
     1     12   1    1.3802e-01    3.5631e+05 ;     C1 - N1    
     1     36   1    1.0817e-01    2.9455e+05 ;     C1 - H1    
     2      4   1    1.5015e-01    2.8016e+05 ;     C2 - C4    
     2     15   1    1.5375e-01    2.5179e+05 ;     C2 - C12   
     2     16   1    1.5375e-01    2.5179e+05 ;     C2 - C13   
     2     37   1    1.0969e-01    2.7665e+05 ;     C2 - H2    
     3      4   1    1.4555e-01    3.2225e+05 ;     C3 - C4    
     3      5   1    1.3984e-01    3.8585e+05 ;     C3 - C5    
     3     11   1    1.3984e-01    3.8585e+05 ;     C3 - C9    
     5     14   1    1.3984e-01    3.8585e+05 ;     C5 - C11   
     5     38   1    1.0860e-01    2.8937e+05 ;     C5 - H3    
     6      7   1    1.5241e-01    2.6192e+05 ;     C6 - C7    
     6      8   1    1.2183e-01    5.3363e+05 ;     C6 - O1    
     6     21   1    1.3789e-01    3.5782e+05 ;     C6 - N3    
     7     30   1    1.5375e-01    2.5179e+05 ;     C7 - C23   
     7     34   1    1.5375e-01    2.5179e+05 ;     C7 - C27   
     7     39   1    1.0969e-01    2.7665e+05 ;     C7 - H4    
     9     10   1    1.2183e-01    5.3363e+05 ;     C8 - O2    
     9     18   1    1.3789e-01    3.5782e+05 ;     C8 - N2    
     9     22   1    1.4906e-01    2.8945e+05 ;     C8 - C17   
    11     12   1    1.3840e-01    3.5187e+05 ;     C9 - N1    
    11     13   1    1.3984e-01    3.8585e+05 ;     C9 - C10   
    12     35   1    1.4629e-01    2.7422e+05 ;     N1 - C28   
    13     17   1    1.3984e-01    3.8585e+05 ;    C10 - C14   
    13     40   1    1.0860e-01    2.8937e+05 ;    C10 - H5    
    14     17   1    1.3984e-01    3.8585e+05 ;    C11 - C14   
    14     18   1    1.4121e-01    3.2150e+05 ;    C11 - N2    
    15     19   1    1.5375e-01    2.5179e+05 ;    C12 - C15   
    15     41   1    1.0969e-01    2.7665e+05 ;    C12 - H6    
    15     42   1    1.0969e-01    2.7665e+05 ;    C12 - H7    
    16     20   1    1.5375e-01    2.5179e+05 ;    C13 - C16   
    16     43   1    1.0969e-01    2.7665e+05 ;    C13 - H8    
    16     44   1    1.0969e-01    2.7665e+05 ;    C13 - H9    
    17     45   1    1.0860e-01    2.8937e+05 ;    C14 - H10   
    18     46   1    1.0129e-01    3.3740e+05 ;     N2 - H11   
    19     21   1    1.4619e-01    2.7506e+05 ;    C15 - N3    
    19     47   1    1.0969e-01    2.7665e+05 ;    C15 - H12   
    19     48   1    1.0969e-01    2.7665e+05 ;    C15 - H13   
    20     21   1    1.4619e-01    2.7506e+05 ;    C16 - N3    
    20     49   1    1.0969e-01    2.7665e+05 ;    C16 - H14   
    20     50   1    1.0969e-01    2.7665e+05 ;    C16 - H15   
    22     23   1    1.3390e-01    4.0836e+05 ;    C17 - N4    
    22     27   1    1.3984e-01    3.8585e+05 ;    C17 - C21   
    23     24   1    1.3390e-01    4.0836e+05 ;     N4 - C18   
    24     25   1    1.3984e-01    3.8585e+05 ;    C18 - C19   
    24     51   1    1.0890e-01    2.8577e+05 ;    C18 - H16   
    25     26   1    1.3984e-01    3.8585e+05 ;    C19 - C20   
    25     52   1    1.0860e-01    2.8937e+05 ;    C19 - H17   
    26     27   1    1.3984e-01    3.8585e+05 ;    C20 - C21   
    26     28   1    1.4328e-01    3.4585e+05 ;    C20 - C22   
    27     53   1    1.0860e-01    2.8937e+05 ;    C21 - H18   
    28     29   1    1.1566e-01    7.8919e+05 ;    C22 - N5    
    30     31   1    1.5375e-01    2.5179e+05 ;    C23 - C24   
    30     54   1    1.0969e-01    2.7665e+05 ;    C23 - H19   
    30     55   1    1.0969e-01    2.7665e+05 ;    C23 - H20   
    31     32   1    1.5375e-01    2.5179e+05 ;    C24 - C25   
    31     56   1    1.0969e-01    2.7665e+05 ;    C24 - H21   
    31     57   1    1.0969e-01    2.7665e+05 ;    C24 - H22   
    32     33   1    1.5375e-01    2.5179e+05 ;    C25 - C26   
    32     58   1    1.0969e-01    2.7665e+05 ;    C25 - H23   
    32     59   1    1.0969e-01    2.7665e+05 ;    C25 - H24   
    33     34   1    1.5375e-01    2.5179e+05 ;    C26 - C27   
    33     60   1    1.0969e-01    2.7665e+05 ;    C26 - H25   
    33     61   1    1.0969e-01    2.7665e+05 ;    C26 - H26   
    34     62   1    1.0969e-01    2.7665e+05 ;    C27 - H27   
    34     63   1    1.0969e-01    2.7665e+05 ;    C27 - H28   
    35     64   1    1.0969e-01    2.7665e+05 ;    C28 - H29   
    35     65   1    1.0969e-01    2.7665e+05 ;    C28 - H30   
    35     66   1    1.0969e-01    2.7665e+05 ;    C28 - H31   

[ pairs ]
;   ai     aj    funct
     1      5      1 ;     C1 - C5    
     1     13      1 ;     C1 - C10   
     1     15      1 ;     C1 - C12   
     1     16      1 ;     C1 - C13   
     1     37      1 ;     C1 - H2    
     1     64      1 ;     C1 - H29   
     1     65      1 ;     C1 - H30   
     1     66      1 ;     C1 - H31   
     2      5      1 ;     C2 - C5    
     2     11      1 ;     C2 - C9    
     2     21      1 ;     C2 - N3    
     2     47      1 ;     C2 - H12   
     2     48      1 ;     C2 - H13   
     2     49      1 ;     C2 - H14   
     2     50      1 ;     C2 - H15   
     3     15      1 ;     C3 - C12   
     3     16      1 ;     C3 - C13   
     3     17      1 ;     C3 - C14   
     3     18      1 ;     C3 - N2    
     3     35      1 ;     C3 - C28   
     3     37      1 ;     C3 - H2    
     3     40      1 ;     C3 - H5    
     4     13      1 ;     C4 - C10   
     4     14      1 ;     C4 - C11   
     4     19      1 ;     C4 - C15   
     4     20      1 ;     C4 - C16   
     4     35      1 ;     C4 - C28   
     4     38      1 ;     C4 - H3    
     4     41      1 ;     C4 - H6    
     4     42      1 ;     C4 - H7    
     4     43      1 ;     C4 - H8    
     4     44      1 ;     C4 - H9    
     5      9      1 ;     C5 - C8    
     5     12      1 ;     C5 - N1    
     5     13      1 ;     C5 - C10   
     5     45      1 ;     C5 - H10   
     5     46      1 ;     C5 - H11   
     6     15      1 ;     C6 - C12   
     6     16      1 ;     C6 - C13   
     6     31      1 ;     C6 - C24   
     6     33      1 ;     C6 - C26   
     6     47      1 ;     C6 - H12   
     6     48      1 ;     C6 - H13   
     6     49      1 ;     C6 - H14   
     6     50      1 ;     C6 - H15   
     6     54      1 ;     C6 - H19   
     6     55      1 ;     C6 - H20   
     6     62      1 ;     C6 - H27   
     6     63      1 ;     C6 - H28   
     7     19      1 ;     C7 - C15   
     7     20      1 ;     C7 - C16   
     7     32      1 ;     C7 - C25   
     7     56      1 ;     C7 - H21   
     7     57      1 ;     C7 - H22   
     7     60      1 ;     C7 - H25   
     7     61      1 ;     C7 - H26   
     8     19      1 ;     O1 - C15   
     8     20      1 ;     O1 - C16   
     8     30      1 ;     O1 - C23   
     8     34      1 ;     O1 - C27   
     8     39      1 ;     O1 - H4    
     9     17      1 ;     C8 - C14   
     9     24      1 ;     C8 - C18   
     9     26      1 ;     C8 - C20   
     9     53      1 ;     C8 - H18   
    10     14      1 ;     O2 - C11   
    10     23      1 ;     O2 - N4    
    10     27      1 ;     O2 - C21   
    10     46      1 ;     O2 - H11   
    11     14      1 ;     C9 - C11   
    11     38      1 ;     C9 - H3    
    11     45      1 ;     C9 - H10   
    11     64      1 ;     C9 - H29   
    11     65      1 ;     C9 - H30   
    11     66      1 ;     C9 - H31   
    12      2      1 ;     N1 - C2    
    12     17      1 ;     N1 - C14   
    12     40      1 ;     N1 - H5    
    13     18      1 ;    C10 - N2    
    13     35      1 ;    C10 - C28   
    14     22      1 ;    C11 - C17   
    14     40      1 ;    C11 - H5    
    15     20      1 ;    C12 - C16   
    15     43      1 ;    C12 - H8    
    15     44      1 ;    C12 - H9    
    16     19      1 ;    C13 - C15   
    16     41      1 ;    C13 - H6    
    16     42      1 ;    C13 - H7    
    17     38      1 ;    C14 - H3    
    17     46      1 ;    C14 - H11   
    18     23      1 ;     N2 - N4    
    18     27      1 ;     N2 - C21   
    18     38      1 ;     N2 - H3    
    18     45      1 ;     N2 - H10   
    19     37      1 ;    C15 - H2    
    19     49      1 ;    C15 - H14   
    19     50      1 ;    C15 - H15   
    20     37      1 ;    C16 - H2    
    20     47      1 ;    C16 - H12   
    20     48      1 ;    C16 - H13   
    21     30      1 ;     N3 - C23   
    21     34      1 ;     N3 - C27   
    21     39      1 ;     N3 - H4    
    21     41      1 ;     N3 - H6    
    21     42      1 ;     N3 - H7    
    21     43      1 ;     N3 - H8    
    21     44      1 ;     N3 - H9    
    22     25      1 ;    C17 - C19   
    22     28      1 ;    C17 - C22   
    22     46      1 ;    C17 - H11   
    22     51      1 ;    C17 - H16   
    23     26      1 ;     N4 - C20   
    23     52      1 ;     N4 - H17   
    23     53      1 ;     N4 - H18   
    24     27      1 ;    C18 - C21   
    24     28      1 ;    C18 - C22   
    25     29      1 ;    C19 - N5    
    25     53      1 ;    C19 - H18   
    26     51      1 ;    C20 - H16   
    27     29      1 ;    C21 - N5    
    27     52      1 ;    C21 - H17   
    28     52      1 ;    C22 - H17   
    28     53      1 ;    C22 - H18   
    30     33      1 ;    C23 - C26   
    30     58      1 ;    C23 - H23   
    30     59      1 ;    C23 - H24   
    30     62      1 ;    C23 - H27   
    30     63      1 ;    C23 - H28   
    31     34      1 ;    C24 - C27   
    31     39      1 ;    C24 - H4    
    31     60      1 ;    C24 - H25   
    31     61      1 ;    C24 - H26   
    32     54      1 ;    C25 - H19   
    32     55      1 ;    C25 - H20   
    32     62      1 ;    C25 - H27   
    32     63      1 ;    C25 - H28   
    33     39      1 ;    C26 - H4    
    33     56      1 ;    C26 - H21   
    33     57      1 ;    C26 - H22   
    34     54      1 ;    C27 - H19   
    34     55      1 ;    C27 - H20   
    34     58      1 ;    C27 - H23   
    34     59      1 ;    C27 - H24   
    36      2      1 ;     H1 - C2    
    36      3      1 ;     H1 - C3    
    36     11      1 ;     H1 - C9    
    36     35      1 ;     H1 - C28   
    37     41      1 ;     H2 - H6    
    37     42      1 ;     H2 - H7    
    37     43      1 ;     H2 - H8    
    37     44      1 ;     H2 - H9    
    39     54      1 ;     H4 - H19   
    39     55      1 ;     H4 - H20   
    39     62      1 ;     H4 - H27   
    39     63      1 ;     H4 - H28   
    40     45      1 ;     H5 - H10   
    41     47      1 ;     H6 - H12   
    41     48      1 ;     H6 - H13   
    42     47      1 ;     H7 - H12   
    42     48      1 ;     H7 - H13   
    43     49      1 ;     H8 - H14   
    43     50      1 ;     H8 - H15   
    44     49      1 ;     H9 - H14   
    44     50      1 ;     H9 - H15   
    51     52      1 ;    H16 - H17   
    54     56      1 ;    H19 - H21   
    54     57      1 ;    H19 - H22   
    55     56      1 ;    H20 - H21   
    55     57      1 ;    H20 - H22   
    56     58      1 ;    H21 - H23   
    56     59      1 ;    H21 - H24   
    57     58      1 ;    H22 - H23   
    57     59      1 ;    H22 - H24   
    58     60      1 ;    H23 - H25   
    58     61      1 ;    H23 - H26   
    59     60      1 ;    H24 - H25   
    59     61      1 ;    H24 - H26   
    60     62      1 ;    H25 - H27   
    60     63      1 ;    H25 - H28   
    61     62      1 ;    H26 - H27   
    61     63      1 ;    H26 - H28   

[ angles ]
;   ai     aj     ak    funct   theta         cth
     1      4      2      1    1.1945e+02    5.4141e+02 ;     C1 - C4     - C2    
     1      4      3      1    1.1351e+02    5.6568e+02 ;     C1 - C4     - C3    
     1     12     11      1    1.1315e+02    5.6400e+02 ;     C1 - N1     - C9    
     1     12     35      1    1.2646e+02    5.1798e+02 ;     C1 - N1     - C28   
     2      4      3      1    1.2652e+02    5.1296e+02 ;     C2 - C4     - C3    
     2     15     19      1    1.1151e+02    5.2635e+02 ;     C2 - C12    - C15   
     2     15     41      1    1.0980e+02    3.8744e+02 ;     C2 - C12    - H6    
     2     15     42      1    1.0980e+02    3.8744e+02 ;     C2 - C12    - H7    
     2     16     20      1    1.1151e+02    5.2635e+02 ;     C2 - C13    - C16   
     2     16     43      1    1.0980e+02    3.8744e+02 ;     C2 - C13    - H8    
     2     16     44      1    1.0980e+02    3.8744e+02 ;     C2 - C13    - H9    
     3      5     14      1    1.2002e+02    5.5731e+02 ;     C3 - C5     - C11   
     3      5     38      1    1.1988e+02    4.0334e+02 ;     C3 - C5     - H3    
     3     11     12      1    1.1834e+02    5.7823e+02 ;     C3 - C9     - N1    
     3     11     13      1    1.2002e+02    5.5731e+02 ;     C3 - C9     - C10   
     4      1     12      1    1.0699e+02    6.1421e+02 ;     C4 - C1     - N1    
     4      1     36      1    1.2848e+02    3.9581e+02 ;     C4 - C1     - H1    
     4      2     15      1    1.1193e+02    5.3137e+02 ;     C4 - C2     - C12   
     4      2     16      1    1.1193e+02    5.3137e+02 ;     C4 - C2     - C13   
     4      2     37      1    1.1049e+02    3.9497e+02 ;     C4 - C2     - H2    
     4      3      5      1    1.2079e+02    5.4392e+02 ;     C4 - C3     - C5    
     4      3     11      1    1.2079e+02    5.4392e+02 ;     C4 - C3     - C9    
     5      3     11      1    1.2002e+02    5.5731e+02 ;     C5 - C3     - C9    
     5     14     17      1    1.2002e+02    5.5731e+02 ;     C5 - C11    - C14   
     5     14     18      1    1.2019e+02    5.6819e+02 ;     C5 - C11    - N2    
     6      7     30      1    1.1104e+02    5.2969e+02 ;     C6 - C7     - C23   
     6      7     34      1    1.1104e+02    5.2969e+02 ;     C6 - C7     - C27   
     6      7     39      1    1.0877e+02    3.9246e+02 ;     C6 - C7     - H4    
     6     21     19      1    1.2069e+02    5.3053e+02 ;     C6 - N3     - C15   
     6     21     20      1    1.2069e+02    5.3053e+02 ;     C6 - N3     - C16   
     7      6      8      1    1.2320e+02    5.6400e+02 ;     C7 - C6     - O1    
     7      6     21      1    1.1518e+02    5.5898e+02 ;     C7 - C6     - N3    
     7     30     31      1    1.1151e+02    5.2635e+02 ;     C7 - C23    - C24   
     7     30     54      1    1.0980e+02    3.8744e+02 ;     C7 - C23    - H19   
     7     30     55      1    1.0980e+02    3.8744e+02 ;     C7 - C23    - H20   
     7     34     33      1    1.1151e+02    5.2635e+02 ;     C7 - C27    - C26   
     7     34     62      1    1.0980e+02    3.8744e+02 ;     C7 - C27    - H27   
     7     34     63      1    1.0980e+02    3.8744e+02 ;     C7 - C27    - H28   
     8      6     21      1    1.2305e+02    6.2091e+02 ;     O1 - C6     - N3    
     9     18     14      1    1.2371e+02    5.3388e+02 ;     C8 - N2     - C11   
     9     18     46      1    1.1755e+02    4.0417e+02 ;     C8 - N2     - H11   
     9     22     23      1    1.1778e+02    5.6651e+02 ;     C8 - C17    - N4    
     9     22     27      1    1.2033e+02    5.3806e+02 ;     C8 - C17    - C21   
    10      9     18      1    1.2305e+02    6.2091e+02 ;     O2 - C8     - N2    
    10      9     22      1    1.2260e+02    5.7488e+02 ;     O2 - C8     - C17   
    11     12     35      1    1.2436e+02    5.2133e+02 ;     C9 - N1     - C28   
    11     13     17      1    1.2002e+02    5.5731e+02 ;     C9 - C10    - C14   
    11     13     40      1    1.1988e+02    4.0334e+02 ;     C9 - C10    - H5    
    12      1     36      1    1.2053e+02    4.1673e+02 ;     N1 - C1     - H1    
    12     11     13      1    1.1834e+02    5.7823e+02 ;     N1 - C9     - C10   
    12     35     64      1    1.0878e+02    4.1673e+02 ;     N1 - C28    - H29   
    12     35     65      1    1.0878e+02    4.1673e+02 ;     N1 - C28    - H30   
    12     35     66      1    1.0878e+02    4.1673e+02 ;     N1 - C28    - H31   
    13     17     14      1    1.2002e+02    5.5731e+02 ;    C10 - C14    - C11   
    13     17     45      1    1.1988e+02    4.0334e+02 ;    C10 - C14    - H10   
    14      5     38      1    1.1988e+02    4.0334e+02 ;    C11 - C5     - H3    
    14     17     45      1    1.1988e+02    4.0334e+02 ;    C11 - C14    - H10   
    14     18     46      1    1.1600e+02    3.9832e+02 ;    C11 - N2     - H11   
    15      2     16      1    1.1151e+02    5.2635e+02 ;    C12 - C2     - C13   
    15      2     37      1    1.0980e+02    3.8744e+02 ;    C12 - C2     - H2    
    15     19     21      1    1.1161e+02    5.5145e+02 ;    C12 - C15    - N3    
    15     19     47      1    1.0956e+02    3.8828e+02 ;    C12 - C15    - H12   
    15     19     48      1    1.0956e+02    3.8828e+02 ;    C12 - C15    - H13   
    16      2     37      1    1.0980e+02    3.8744e+02 ;    C13 - C2     - H2    
    16     20     21      1    1.1161e+02    5.5145e+02 ;    C13 - C16    - N3    
    16     20     49      1    1.0956e+02    3.8828e+02 ;    C13 - C16    - H14   
    16     20     50      1    1.0956e+02    3.8828e+02 ;    C13 - C16    - H15   
    17     13     40      1    1.1988e+02    4.0334e+02 ;    C14 - C10    - H5    
    17     14     18      1    1.2019e+02    5.6819e+02 ;    C14 - C11    - N2    
    18      9     22      1    1.1525e+02    5.6651e+02 ;     N2 - C8     - C17   
    19     15     41      1    1.0980e+02    3.8744e+02 ;    C15 - C12    - H6    
    19     15     42      1    1.0980e+02    3.8744e+02 ;    C15 - C12    - H7    
    19     21     20      1    1.1564e+02    5.2718e+02 ;    C15 - N3     - C16   
    20     16     43      1    1.0980e+02    3.8744e+02 ;    C16 - C13    - H8    
    20     16     44      1    1.0980e+02    3.8744e+02 ;    C16 - C13    - H9    
    21     19     47      1    1.0888e+02    4.1673e+02 ;     N3 - C15    - H12   
    21     19     48      1    1.0888e+02    4.1673e+02 ;     N3 - C15    - H13   
    21     20     49      1    1.0888e+02    4.1673e+02 ;     N3 - C16    - H14   
    21     20     50      1    1.0888e+02    4.1673e+02 ;     N3 - C16    - H15   
    22     23     24      1    1.1722e+02    5.7153e+02 ;    C17 - N4     - C18   
    22     27     26      1    1.2002e+02    5.5731e+02 ;    C17 - C21    - C20   
    22     27     53      1    1.1988e+02    4.0334e+02 ;    C17 - C21    - H18   
    23     22     27      1    1.2294e+02    5.7572e+02 ;     N4 - C17    - C21   
    23     24     25      1    1.2294e+02    5.7572e+02 ;     N4 - C18    - C19   
    23     24     51      1    1.1603e+02    4.3430e+02 ;     N4 - C18    - H16   
    24     25     26      1    1.2002e+02    5.5731e+02 ;    C18 - C19    - C20   
    24     25     52      1    1.1988e+02    4.0334e+02 ;    C18 - C19    - H17   
    25     24     51      1    1.2034e+02    4.0250e+02 ;    C19 - C18    - H16   
    25     26     27      1    1.2002e+02    5.5731e+02 ;    C19 - C20    - C21   
    25     26     28      1    1.2027e+02    5.4978e+02 ;    C19 - C20    - C22   
    26     25     52      1    1.1988e+02    4.0334e+02 ;    C20 - C19    - H17   
    26     27     53      1    1.1988e+02    4.0334e+02 ;    C20 - C21    - H18   
    26     28     29      1    1.7949e+02    4.9288e+02 ;    C20 - C22    - N5    
    27     26     28      1    1.2027e+02    5.4978e+02 ;    C21 - C20    - C22   
    30      7     34      1    1.1151e+02    5.2635e+02 ;    C23 - C7     - C27   
    30      7     39      1    1.0980e+02    3.8744e+02 ;    C23 - C7     - H4    
    30     31     32      1    1.1151e+02    5.2635e+02 ;    C23 - C24    - C25   
    30     31     56      1    1.0980e+02    3.8744e+02 ;    C23 - C24    - H21   
    30     31     57      1    1.0980e+02    3.8744e+02 ;    C23 - C24    - H22   
    31     30     54      1    1.0980e+02    3.8744e+02 ;    C24 - C23    - H19   
    31     30     55      1    1.0980e+02    3.8744e+02 ;    C24 - C23    - H20   
    31     32     33      1    1.1151e+02    5.2635e+02 ;    C24 - C25    - C26   
    31     32     58      1    1.0980e+02    3.8744e+02 ;    C24 - C25    - H23   
    31     32     59      1    1.0980e+02    3.8744e+02 ;    C24 - C25    - H24   
    32     31     56      1    1.0980e+02    3.8744e+02 ;    C25 - C24    - H21   
    32     31     57      1    1.0980e+02    3.8744e+02 ;    C25 - C24    - H22   
    32     33     34      1    1.1151e+02    5.2635e+02 ;    C25 - C26    - C27   
    32     33     60      1    1.0980e+02    3.8744e+02 ;    C25 - C26    - H25   
    32     33     61      1    1.0980e+02    3.8744e+02 ;    C25 - C26    - H26   
    33     32     58      1    1.0980e+02    3.8744e+02 ;    C26 - C25    - H23   
    33     32     59      1    1.0980e+02    3.8744e+02 ;    C26 - C25    - H24   
    33     34     62      1    1.0980e+02    3.8744e+02 ;    C26 - C27    - H27   
    33     34     63      1    1.0980e+02    3.8744e+02 ;    C26 - C27    - H28   
    34      7     39      1    1.0980e+02    3.8744e+02 ;    C27 - C7     - H4    
    34     33     60      1    1.0980e+02    3.8744e+02 ;    C27 - C26    - H25   
    34     33     61      1    1.0980e+02    3.8744e+02 ;    C27 - C26    - H26   
    41     15     42      1    1.0758e+02    3.2970e+02 ;     H6 - C12    - H7    
    43     16     44      1    1.0758e+02    3.2970e+02 ;     H8 - C13    - H9    
    47     19     48      1    1.0846e+02    3.2803e+02 ;    H12 - C15    - H13   
    49     20     50      1    1.0846e+02    3.2803e+02 ;    H14 - C16    - H15   
    54     30     55      1    1.0758e+02    3.2970e+02 ;    H19 - C23    - H20   
    56     31     57      1    1.0758e+02    3.2970e+02 ;    H21 - C24    - H22   
    58     32     59      1    1.0758e+02    3.2970e+02 ;    H23 - C25    - H24   
    60     33     61      1    1.0758e+02    3.2970e+02 ;    H25 - C26    - H26   
    62     34     63      1    1.0758e+02    3.2970e+02 ;    H27 - C27    - H28   
    64     35     65      1    1.0846e+02    3.2803e+02 ;    H29 - C28    - H30   
    64     35     66      1    1.0846e+02    3.2803e+02 ;    H29 - C28    - H31   
    65     35     66      1    1.0846e+02    3.2803e+02 ;    H30 - C28    - H31   

[ dihedrals ] ; propers
; treated as RBs in GROMACS to use combine multiple AMBER torsions per quartet
;    I      j      k      l   func    C0         C1         C2         C3         C4         C5
     1      4      2     15      3    0.00000    0.00000    0.00000    0.00000    0.00000    0.00000 ;     C1-    C4-    C2-   C12
     1      4      2     16      3    0.00000    0.00000    0.00000    0.00000    0.00000    0.00000 ;     C1-    C4-    C2-   C13
     1      4      2     37      3    0.00000    0.00000    0.00000    0.00000    0.00000    0.00000 ;     C1-    C4-    C2-    H2
     1      4      3      5      3    5.85760    0.00000   -5.85760    0.00000    0.00000    0.00000 ;     C1-    C4-    C3-    C5
     1      4      3     11      3    5.85760    0.00000   -5.85760    0.00000    0.00000    0.00000 ;     C1-    C4-    C3-    C9
     1     12     11      3      3    2.51040    0.00000   -2.51040    0.00000    0.00000    0.00000 ;     C1-    N1-    C9-    C3
     1     12     11     13      3    2.51040    0.00000   -2.51040    0.00000    0.00000    0.00000 ;     C1-    N1-    C9-   C10
     1     12     35     64      3    0.00000    0.00000    0.00000    0.00000    0.00000    0.00000 ;     C1-    N1-   C28-   H29
     1     12     35     65      3    0.00000    0.00000    0.00000    0.00000    0.00000    0.00000 ;     C1-    N1-   C28-   H30
     1     12     35     66      3    0.00000    0.00000    0.00000    0.00000    0.00000    0.00000 ;     C1-    N1-   C28-   H31
     2      4      3      5      3    5.85760    0.00000   -5.85760    0.00000    0.00000    0.00000 ;     C2-    C4-    C3-    C5
     2      4      3     11      3    5.85760    0.00000   -5.85760    0.00000    0.00000    0.00000 ;     C2-    C4-    C3-    C9
     2     15     19     21      3    0.65084    1.95253    0.00000   -2.60338    0.00000    0.00000 ;     C2-   C12-   C15-    N3
     2     15     19     47      3    0.65084    1.95253    0.00000   -2.60338    0.00000    0.00000 ;     C2-   C12-   C15-   H12
     2     15     19     48      3    0.65084    1.95253    0.00000   -2.60338    0.00000    0.00000 ;     C2-   C12-   C15-   H13
     2     16     20     21      3    0.65084    1.95253    0.00000   -2.60338    0.00000    0.00000 ;     C2-   C13-   C16-    N3
     2     16     20     49      3    0.65084    1.95253    0.00000   -2.60338    0.00000    0.00000 ;     C2-   C13-   C16-   H14
     2     16     20     50      3    0.65084    1.95253    0.00000   -2.60338    0.00000    0.00000 ;     C2-   C13-   C16-   H15
     3      4      2     15      3    0.00000    0.00000    0.00000    0.00000    0.00000    0.00000 ;     C3-    C4-    C2-   C12
     3      4      2     16      3    0.00000    0.00000    0.00000    0.00000    0.00000    0.00000 ;     C3-    C4-    C2-   C13
     3      4      2     37      3    0.00000    0.00000    0.00000    0.00000    0.00000    0.00000 ;     C3-    C4-    C2-    H2
     3      5     14     17      3   30.33400    0.00000  -30.33400    0.00000    0.00000    0.00000 ;     C3-    C5-   C11-   C14
     3      5     14     18      3   30.33400    0.00000  -30.33400    0.00000    0.00000    0.00000 ;     C3-    C5-   C11-    N2
     3     11     12     35      3    2.51040    0.00000   -2.51040    0.00000    0.00000    0.00000 ;     C3-    C9-    N1-   C28
     3     11     13     17      3   30.33400    0.00000  -30.33400    0.00000    0.00000    0.00000 ;     C3-    C9-   C10-   C14
     3     11     13     40      3   30.33400    0.00000  -30.33400    0.00000    0.00000    0.00000 ;     C3-    C9-   C10-    H5
     4      1     12     11      3   14.22560    0.00000  -14.22560    0.00000    0.00000    0.00000 ;     C4-    C1-    N1-    C9
     4      1     12     35      3   14.22560    0.00000  -14.22560    0.00000    0.00000    0.00000 ;     C4-    C1-    N1-   C28
     4      2     15     19      3    0.65084    1.95253    0.00000   -2.60338    0.00000    0.00000 ;     C4-    C2-   C12-   C15
     4      2     15     41      3    0.65084    1.95253    0.00000   -2.60338    0.00000    0.00000 ;     C4-    C2-   C12-    H6
     4      2     15     42      3    0.65084    1.95253    0.00000   -2.60338    0.00000    0.00000 ;     C4-    C2-   C12-    H7
     4      2     16     20      3    0.65084    1.95253    0.00000   -2.60338    0.00000    0.00000 ;     C4-    C2-   C13-   C16
     4      2     16     43      3    0.65084    1.95253    0.00000   -2.60338    0.00000    0.00000 ;     C4-    C2-   C13-    H8
     4      2     16     44      3    0.65084    1.95253    0.00000   -2.60338    0.00000    0.00000 ;     C4-    C2-   C13-    H9
     4      3      5     14      3   30.33400    0.00000  -30.33400    0.00000    0.00000    0.00000 ;     C4-    C3-    C5-   C11
     4      3      5     38      3   30.33400    0.00000  -30.33400    0.00000    0.00000    0.00000 ;     C4-    C3-    C5-    H3
     4      3     11     12      3   30.33400    0.00000  -30.33400    0.00000    0.00000    0.00000 ;     C4-    C3-    C9-    N1
     4      3     11     13      3   30.33400    0.00000  -30.33400    0.00000    0.00000    0.00000 ;     C4-    C3-    C9-   C10
     5      3     11     12      3   30.33400    0.00000  -30.33400    0.00000    0.00000    0.00000 ;     C5-    C3-    C9-    N1
     5      3     11     13      3   30.33400    0.00000  -30.33400    0.00000    0.00000    0.00000 ;     C5-    C3-    C9-   C10
     5     14     17     13      3   30.33400    0.00000  -30.33400    0.00000    0.00000    0.00000 ;     C5-   C11-   C14-   C10
     5     14     17     45      3   30.33400    0.00000  -30.33400    0.00000    0.00000    0.00000 ;     C5-   C11-   C14-   H10
     5     14     18      9      3    3.76560    0.00000   -3.76560    0.00000    0.00000    0.00000 ;     C5-   C11-    N2-    C8
     5     14     18     46      3    3.76560    0.00000   -3.76560    0.00000    0.00000    0.00000 ;     C5-   C11-    N2-   H11
     6      7     30     31      3    0.65084    1.95253    0.00000   -2.60338    0.00000    0.00000 ;     C6-    C7-   C23-   C24
     6      7     30     54      3    0.65084    1.95253    0.00000   -2.60338    0.00000    0.00000 ;     C6-    C7-   C23-   H19
     6      7     30     55      3    0.65084    1.95253    0.00000   -2.60338    0.00000    0.00000 ;     C6-    C7-   C23-   H20
     6      7     34     33      3    0.65084    1.95253    0.00000   -2.60338    0.00000    0.00000 ;     C6-    C7-   C27-   C26
     6      7     34     62      3    0.65084    1.95253    0.00000   -2.60338    0.00000    0.00000 ;     C6-    C7-   C27-   H27
     6      7     34     63      3    0.65084    1.95253    0.00000   -2.60338    0.00000    0.00000 ;     C6-    C7-   C27-   H28
     6     21     19     15      3    2.84512   -4.10032   16.73600    2.51040  -16.73600    0.00000 ;     C6-    N3-   C15-   C12
     6     21     19     47      3    0.00000    0.00000    0.00000    0.00000    0.00000    0.00000 ;     C6-    N3-   C15-   H12
     6     21     19     48      3    0.00000    0.00000    0.00000    0.00000    0.00000    0.00000 ;     C6-    N3-   C15-   H13
     6     21     20     16      3    2.84512   -4.10032   16.73600    2.51040  -16.73600    0.00000 ;     C6-    N3-   C16-   C13
     6     21     20     49      3    0.00000    0.00000    0.00000    0.00000    0.00000    0.00000 ;     C6-    N3-   C16-   H14
     6     21     20     50      3    0.00000    0.00000    0.00000    0.00000    0.00000    0.00000 ;     C6-    N3-   C16-   H15
     7      6     21     19      3    6.27600    6.27600    0.00000    0.00000    0.00000    0.00000 ;     C7-    C6-    N3-   C15
     7      6     21     20      3    6.27600    6.27600    0.00000    0.00000    0.00000    0.00000 ;     C7-    C6-    N3-   C16
     7     30     31     32      3    3.68192    3.09616   -2.09200   -3.01248    0.00000    0.00000 ;     C7-   C23-   C24-   C25
     7     30     31     56      3    0.66944    2.00832    0.00000   -2.67776    0.00000    0.00000 ;     C7-   C23-   C24-   H21
     7     30     31     57      3    0.66944    2.00832    0.00000   -2.67776    0.00000    0.00000 ;     C7-   C23-   C24-   H22
     7     34     33     32      3    3.68192    3.09616   -2.09200   -3.01248    0.00000    0.00000 ;     C7-   C27-   C26-   C25
     7     34     33     60      3    0.66944    2.00832    0.00000   -2.67776    0.00000    0.00000 ;     C7-   C27-   C26-   H25
     7     34     33     61      3    0.66944    2.00832    0.00000   -2.67776    0.00000    0.00000 ;     C7-   C27-   C26-   H26
     8      6      7     30      3    0.00000    0.00000    0.00000    0.00000    0.00000    0.00000 ;     O1-    C6-    C7-   C23
     8      6      7     34      3    0.00000    0.00000    0.00000    0.00000    0.00000    0.00000 ;     O1-    C6-    C7-   C27
     8      6      7     39      3    3.68192   -4.35136    0.00000    1.33888    0.00000    0.00000 ;     O1-    C6-    C7-    H4
     8      6     21     19      3   20.92000    0.00000  -20.92000    0.00000    0.00000    0.00000 ;     O1-    C6-    N3-   C15
     8      6     21     20      3   20.92000    0.00000  -20.92000    0.00000    0.00000    0.00000 ;     O1-    C6-    N3-   C16
     9     18     14     17      3    3.76560    0.00000   -3.76560    0.00000    0.00000    0.00000 ;     C8-    N2-   C11-   C14
     9     22     23     24      3   40.16640    0.00000  -40.16640    0.00000    0.00000    0.00000 ;     C8-   C17-    N4-   C18
     9     22     27     26      3   30.33400    0.00000  -30.33400    0.00000    0.00000    0.00000 ;     C8-   C17-   C21-   C20
     9     22     27     53      3   30.33400    0.00000  -30.33400    0.00000    0.00000    0.00000 ;     C8-   C17-   C21-   H18
    10      9     18     14      3   20.92000    0.00000  -20.92000    0.00000    0.00000    0.00000 ;     O2-    C8-    N2-   C11
    10      9     18     46      3   29.28800   -8.36800  -20.92000    0.00000    0.00000    0.00000 ;     O2-    C8-    N2-   H11
    10      9     22     23      3    8.36800    0.00000   -8.36800    0.00000    0.00000    0.00000 ;     O2-    C8-   C17-    N4
    10      9     22     27      3    8.36800    0.00000   -8.36800    0.00000    0.00000    0.00000 ;     O2-    C8-   C17-   C21
    11      3      5     14      3   30.33400    0.00000  -30.33400    0.00000    0.00000    0.00000 ;     C9-    C3-    C5-   C11
    11      3      5     38      3   30.33400    0.00000  -30.33400    0.00000    0.00000    0.00000 ;     C9-    C3-    C5-    H3
    11     12     35     64      3    0.00000    0.00000    0.00000    0.00000    0.00000    0.00000 ;     C9-    N1-   C28-   H29
    11     12     35     65      3    0.00000    0.00000    0.00000    0.00000    0.00000    0.00000 ;     C9-    N1-   C28-   H30
    11     12     35     66      3    0.00000    0.00000    0.00000    0.00000    0.00000    0.00000 ;     C9-    N1-   C28-   H31
    11     13     17     14      3   30.33400    0.00000  -30.33400    0.00000    0.00000    0.00000 ;     C9-   C10-   C14-   C11
    11     13     17     45      3   30.33400    0.00000  -30.33400    0.00000    0.00000    0.00000 ;     C9-   C10-   C14-   H10
    12      1      4      2      3   33.47200    0.00000  -33.47200    0.00000    0.00000    0.00000 ;     N1-    C1-    C4-    C2
    12      1      4      3      3   33.47200    0.00000  -33.47200    0.00000    0.00000    0.00000 ;     N1-    C1-    C4-    C3
    12     11     13     17      3   30.33400    0.00000  -30.33400    0.00000    0.00000    0.00000 ;     N1-    C9-   C10-   C14
    12     11     13     40      3   30.33400    0.00000  -30.33400    0.00000    0.00000    0.00000 ;     N1-    C9-   C10-    H5
    13     11     12     35      3    2.51040    0.00000   -2.51040    0.00000    0.00000    0.00000 ;    C10-    C9-    N1-   C28
    13     17     14     18      3   30.33400    0.00000  -30.33400    0.00000    0.00000    0.00000 ;    C10-   C14-   C11-    N2
    14     17     13     40      3   30.33400    0.00000  -30.33400    0.00000    0.00000    0.00000 ;    C11-   C14-   C10-    H5
    14     18      9     22      3   20.92000    0.00000  -20.92000    0.00000    0.00000    0.00000 ;    C11-    N2-    C8-   C17
    15      2     16     20      3    3.68192    3.09616   -2.09200   -3.01248    0.00000    0.00000 ;    C12-    C2-   C13-   C16
    15      2     16     43      3    0.66944    2.00832    0.00000   -2.67776    0.00000    0.00000 ;    C12-    C2-   C13-    H8
    15      2     16     44      3    0.66944    2.00832    0.00000   -2.67776    0.00000    0.00000 ;    C12-    C2-   C13-    H9
    15     19     21     20      3    0.00000    0.00000    0.00000    0.00000    0.00000    0.00000 ;    C12-   C15-    N3-   C16
    16      2     15     19      3    3.68192    3.09616   -2.09200   -3.01248    0.00000    0.00000 ;    C13-    C2-   C12-   C15
    16      2     15     41      3    0.66944    2.00832    0.00000   -2.67776    0.00000    0.00000 ;    C13-    C2-   C12-    H6
    16      2     15     42      3    0.66944    2.00832    0.00000   -2.67776    0.00000    0.00000 ;    C13-    C2-   C12-    H7
    16     20     21     19      3    0.00000    0.00000    0.00000    0.00000    0.00000    0.00000 ;    C13-   C16-    N3-   C15
    17     14      5     38      3   30.33400    0.00000  -30.33400    0.00000    0.00000    0.00000 ;    C14-   C11-    C5-    H3
    17     14     18     46      3    3.76560    0.00000   -3.76560    0.00000    0.00000    0.00000 ;    C14-   C11-    N2-   H11
    18      9     22     23      3    8.36800    0.00000   -8.36800    0.00000    0.00000    0.00000 ;     N2-    C8-   C17-    N4
    18      9     22     27      3    8.36800    0.00000   -8.36800    0.00000    0.00000    0.00000 ;     N2-    C8-   C17-   C21
    18     14      5     38      3   30.33400    0.00000  -30.33400    0.00000    0.00000    0.00000 ;     N2-   C11-    C5-    H3
    18     14     17     45      3   30.33400    0.00000  -30.33400    0.00000    0.00000    0.00000 ;     N2-   C11-   C14-   H10
    19     15      2     37      3    0.66944    2.00832    0.00000   -2.67776    0.00000    0.00000 ;    C15-   C12-    C2-    H2
    19     21     20     49      3    0.00000    0.00000    0.00000    0.00000    0.00000    0.00000 ;    C15-    N3-   C16-   H14
    19     21     20     50      3    0.00000    0.00000    0.00000    0.00000    0.00000    0.00000 ;    C15-    N3-   C16-   H15
    20     16      2     37      3    0.66944    2.00832    0.00000   -2.67776    0.00000    0.00000 ;    C16-   C13-    C2-    H2
    20     21     19     47      3    0.00000    0.00000    0.00000    0.00000    0.00000    0.00000 ;    C16-    N3-   C15-   H12
    20     21     19     48      3    0.00000    0.00000    0.00000    0.00000    0.00000    0.00000 ;    C16-    N3-   C15-   H13
    21      6      7     30      3    0.83680    0.00000   -2.76144    0.00000    3.34720    0.00000 ;     N3-    C6-    C7-   C23
    21      6      7     34      3    0.83680    0.00000   -2.76144    0.00000    3.34720    0.00000 ;     N3-    C6-    C7-   C27
    21      6      7     39      3    0.00000    0.00000    0.00000    0.00000    0.00000    0.00000 ;     N3-    C6-    C7-    H4
    21     19     15     41      3    0.65084    1.95253    0.00000   -2.60338    0.00000    0.00000 ;     N3-   C15-   C12-    H6
    21     19     15     42      3    0.65084    1.95253    0.00000   -2.60338    0.00000    0.00000 ;     N3-   C15-   C12-    H7
    21     20     16     43      3    0.65084    1.95253    0.00000   -2.60338    0.00000    0.00000 ;     N3-   C16-   C13-    H8
    21     20     16     44      3    0.65084    1.95253    0.00000   -2.60338    0.00000    0.00000 ;     N3-   C16-   C13-    H9
    22      9     18     46      3   20.92000    0.00000  -20.92000    0.00000    0.00000    0.00000 ;    C17-    C8-    N2-   H11
    22     23     24     25      3   40.16640    0.00000  -40.16640    0.00000    0.00000    0.00000 ;    C17-    N4-   C18-   C19
    22     23     24     51      3   40.16640    0.00000  -40.16640    0.00000    0.00000    0.00000 ;    C17-    N4-   C18-   H16
    22     27     26     25      3   30.33400    0.00000  -30.33400    0.00000    0.00000    0.00000 ;    C17-   C21-   C20-   C19
    22     27     26     28      3   30.33400    0.00000  -30.33400    0.00000    0.00000    0.00000 ;    C17-   C21-   C20-   C22
    23     22     27     26      3   30.33400    0.00000  -30.33400    0.00000    0.00000    0.00000 ;     N4-   C17-   C21-   C20
    23     22     27     53      3   30.33400    0.00000  -30.33400    0.00000    0.00000    0.00000 ;     N4-   C17-   C21-   H18
    23     24     25     26      3   30.33400    0.00000  -30.33400    0.00000    0.00000    0.00000 ;     N4-   C18-   C19-   C20
    23     24     25     52      3   30.33400    0.00000  -30.33400    0.00000    0.00000    0.00000 ;     N4-   C18-   C19-   H17
    24     23     22     27      3   40.16640    0.00000  -40.16640    0.00000    0.00000    0.00000 ;    C18-    N4-   C17-   C21
    24     25     26     27      3   30.33400    0.00000  -30.33400    0.00000    0.00000    0.00000 ;    C18-   C19-   C20-   C21
    24     25     26     28      3   30.33400    0.00000  -30.33400    0.00000    0.00000    0.00000 ;    C18-   C19-   C20-   C22
    25     26     27     53      3   30.33400    0.00000  -30.33400    0.00000    0.00000    0.00000 ;    C19-   C20-   C21-   H18
    25     26     28     29      3    0.00000    0.00000    0.00000    0.00000    0.00000    0.00000 ;    C19-   C20-   C22-    N5
    26     25     24     51      3   30.33400    0.00000  -30.33400    0.00000    0.00000    0.00000 ;    C20-   C19-   C18-   H16
    27     26     25     52      3   30.33400    0.00000  -30.33400    0.00000    0.00000    0.00000 ;    C21-   C20-   C19-   H17
    27     26     28     29      3    0.00000    0.00000    0.00000    0.00000    0.00000    0.00000 ;    C21-   C20-   C22-    N5
    28     26     25     52      3   30.33400    0.00000  -30.33400    0.00000    0.00000    0.00000 ;    C22-   C20-   C19-   H17
    28     26     27     53      3   30.33400    0.00000  -30.33400    0.00000    0.00000    0.00000 ;    C22-   C20-   C21-   H18
    30      7     34     33      3    3.68192    3.09616   -2.09200   -3.01248    0.00000    0.00000 ;    C23-    C7-   C27-   C26
    30      7     34     62      3    0.66944    2.00832    0.00000   -2.67776    0.00000    0.00000 ;    C23-    C7-   C27-   H27
    30      7     34     63      3    0.66944    2.00832    0.00000   -2.67776    0.00000    0.00000 ;    C23-    C7-   C27-   H28
    30     31     32     33      3    3.68192    3.09616   -2.09200   -3.01248    0.00000    0.00000 ;    C23-   C24-   C25-   C26
    30     31     32     58      3    0.66944    2.00832    0.00000   -2.67776    0.00000    0.00000 ;    C23-   C24-   C25-   H23
    30     31     32     59      3    0.66944    2.00832    0.00000   -2.67776    0.00000    0.00000 ;    C23-   C24-   C25-   H24
    31     30      7     34      3    3.68192    3.09616   -2.09200   -3.01248    0.00000    0.00000 ;    C24-   C23-    C7-   C27
    31     30      7     39      3    0.66944    2.00832    0.00000   -2.67776    0.00000    0.00000 ;    C24-   C23-    C7-    H4
    31     32     33     34      3    3.68192    3.09616   -2.09200   -3.01248    0.00000    0.00000 ;    C24-   C25-   C26-   C27
    31     32     33     60      3    0.66944    2.00832    0.00000   -2.67776    0.00000    0.00000 ;    C24-   C25-   C26-   H25
    31     32     33     61      3    0.66944    2.00832    0.00000   -2.67776    0.00000    0.00000 ;    C24-   C25-   C26-   H26
    32     31     30     54      3    0.66944    2.00832    0.00000   -2.67776    0.00000    0.00000 ;    C25-   C24-   C23-   H19
    32     31     30     55      3    0.66944    2.00832    0.00000   -2.67776    0.00000    0.00000 ;    C25-   C24-   C23-   H20
    32     33     34     62      3    0.66944    2.00832    0.00000   -2.67776    0.00000    0.00000 ;    C25-   C26-   C27-   H27
    32     33     34     63      3    0.66944    2.00832    0.00000   -2.67776    0.00000    0.00000 ;    C25-   C26-   C27-   H28
    33     32     31     56      3    0.66944    2.00832    0.00000   -2.67776    0.00000    0.00000 ;    C26-   C25-   C24-   H21
    33     32     31     57      3    0.66944    2.00832    0.00000   -2.67776    0.00000    0.00000 ;    C26-   C25-   C24-   H22
    33     34      7     39      3    0.66944    2.00832    0.00000   -2.67776    0.00000    0.00000 ;    C26-   C27-    C7-    H4
    34      7     30     54      3    0.66944    2.00832    0.00000   -2.67776    0.00000    0.00000 ;    C27-    C7-   C23-   H19
    34      7     30     55      3    0.66944    2.00832    0.00000   -2.67776    0.00000    0.00000 ;    C27-    C7-   C23-   H20
    34     33     32     58      3    0.66944    2.00832    0.00000   -2.67776    0.00000    0.00000 ;    C27-   C26-   C25-   H23
    34     33     32     59      3    0.66944    2.00832    0.00000   -2.67776    0.00000    0.00000 ;    C27-   C26-   C25-   H24
    36      1      4      2      3   33.47200    0.00000  -33.47200    0.00000    0.00000    0.00000 ;     H1-    C1-    C4-    C2
    36      1      4      3      3   33.47200    0.00000  -33.47200    0.00000    0.00000    0.00000 ;     H1-    C1-    C4-    C3
    36      1     12     11      3   14.22560    0.00000  -14.22560    0.00000    0.00000    0.00000 ;     H1-    C1-    N1-    C9
    36      1     12     35      3   14.22560    0.00000  -14.22560    0.00000    0.00000    0.00000 ;     H1-    C1-    N1-   C28
    37      2     15     41      3    0.62760    1.88280    0.00000   -2.51040    0.00000    0.00000 ;     H2-    C2-   C12-    H6
    37      2     15     42      3    0.62760    1.88280    0.00000   -2.51040    0.00000    0.00000 ;     H2-    C2-   C12-    H7
    37      2     16     43      3    0.62760    1.88280    0.00000   -2.51040    0.00000    0.00000 ;     H2-    C2-   C13-    H8
    37      2     16     44      3    0.62760    1.88280    0.00000   -2.51040    0.00000    0.00000 ;     H2-    C2-   C13-    H9
    39      7     30     54      3    0.62760    1.88280    0.00000   -2.51040    0.00000    0.00000 ;     H4-    C7-   C23-   H19
    39      7     30     55      3    0.62760    1.88280    0.00000   -2.51040    0.00000    0.00000 ;     H4-    C7-   C23-   H20
    39      7     34     62      3    0.62760    1.88280    0.00000   -2.51040    0.00000    0.00000 ;     H4-    C7-   C27-   H27
    39      7     34     63      3    0.62760    1.88280    0.00000   -2.51040    0.00000    0.00000 ;     H4-    C7-   C27-   H28
    40     13     17     45      3   30.33400    0.00000  -30.33400    0.00000    0.00000    0.00000 ;     H5-   C10-   C14-   H10
    41     15     19     47      3    0.65084    1.95253    0.00000   -2.60338    0.00000    0.00000 ;     H6-   C12-   C15-   H12
    41     15     19     48      3    0.65084    1.95253    0.00000   -2.60338    0.00000    0.00000 ;     H6-   C12-   C15-   H13
    42     15     19     47      3    0.65084    1.95253    0.00000   -2.60338    0.00000    0.00000 ;     H7-   C12-   C15-   H12
    42     15     19     48      3    0.65084    1.95253    0.00000   -2.60338    0.00000    0.00000 ;     H7-   C12-   C15-   H13
    43     16     20     49      3    0.65084    1.95253    0.00000   -2.60338    0.00000    0.00000 ;     H8-   C13-   C16-   H14
    43     16     20     50      3    0.65084    1.95253    0.00000   -2.60338    0.00000    0.00000 ;     H8-   C13-   C16-   H15
    44     16     20     49      3    0.65084    1.95253    0.00000   -2.60338    0.00000    0.00000 ;     H9-   C13-   C16-   H14
    44     16     20     50      3    0.65084    1.95253    0.00000   -2.60338    0.00000    0.00000 ;     H9-   C13-   C16-   H15
    51     24     25     52      3   30.33400    0.00000  -30.33400    0.00000    0.00000    0.00000 ;    H16-   C18-   C19-   H17
    54     30     31     56      3    0.62760    1.88280    0.00000   -2.51040    0.00000    0.00000 ;    H19-   C23-   C24-   H21
    54     30     31     57      3    0.62760    1.88280    0.00000   -2.51040    0.00000    0.00000 ;    H19-   C23-   C24-   H22
    55     30     31     56      3    0.62760    1.88280    0.00000   -2.51040    0.00000    0.00000 ;    H20-   C23-   C24-   H21
    55     30     31     57      3    0.62760    1.88280    0.00000   -2.51040    0.00000    0.00000 ;    H20-   C23-   C24-   H22
    56     31     32     58      3    0.62760    1.88280    0.00000   -2.51040    0.00000    0.00000 ;    H21-   C24-   C25-   H23
    56     31     32     59      3    0.62760    1.88280    0.00000   -2.51040    0.00000    0.00000 ;    H21-   C24-   C25-   H24
    57     31     32     58      3    0.62760    1.88280    0.00000   -2.51040    0.00000    0.00000 ;    H22-   C24-   C25-   H23
    57     31     32     59      3    0.62760    1.88280    0.00000   -2.51040    0.00000    0.00000 ;    H22-   C24-   C25-   H24
    58     32     33     60      3    0.62760    1.88280    0.00000   -2.51040    0.00000    0.00000 ;    H23-   C25-   C26-   H25
    58     32     33     61      3    0.62760    1.88280    0.00000   -2.51040    0.00000    0.00000 ;    H23-   C25-   C26-   H26
    59     32     33     60      3    0.62760    1.88280    0.00000   -2.51040    0.00000    0.00000 ;    H24-   C25-   C26-   H25
    59     32     33     61      3    0.62760    1.88280    0.00000   -2.51040    0.00000    0.00000 ;    H24-   C25-   C26-   H26
    60     33     34     62      3    0.62760    1.88280    0.00000   -2.51040    0.00000    0.00000 ;    H25-   C26-   C27-   H27
    60     33     34     63      3    0.62760    1.88280    0.00000   -2.51040    0.00000    0.00000 ;    H25-   C26-   C27-   H28
    61     33     34     62      3    0.62760    1.88280    0.00000   -2.51040    0.00000    0.00000 ;    H26-   C26-   C27-   H27
    61     33     34     63      3    0.62760    1.88280    0.00000   -2.51040    0.00000    0.00000 ;    H26-   C26-   C27-   H28

[ dihedrals ] ; impropers
; treated as propers in GROMACS to use correct AMBER analytical function
;    I      j      k      l   func   phase     kd      pn
     1      4      3      2      1   180.00   4.60240   2 ;     C1-    C4-    C3-    C2
     1     12     11     35      1   180.00   4.60240   2 ;     C1-    N1-    C9-   C28
     3     13     11     12      1   180.00   4.60240   2 ;     C3-   C10-    C9-    N1
     3     14      5     38      1   180.00   4.60240   2 ;     C3-   C11-    C5-    H3
     5     11      3      4      1   180.00   4.60240   2 ;     C5-    C9-    C3-    C4
     5     17     14     18      1   180.00   4.60240   2 ;     C5-   C14-   C11-    N2
     6     19     21     20      1   180.00   4.60240   2 ;     C6-   C15-    N3-   C16
     7     21      6      8      1   180.00  43.93200   2 ;     C7-    N3-    C6-    O1
     9     14     18     46      1   180.00   4.60240   2 ;     C8-   C11-    N2-   H11
     9     27     22     23      1   180.00   4.60240   2 ;     C8-   C21-   C17-    N4
    11     17     13     40      1   180.00   4.60240   2 ;     C9-   C14-   C10-    H5
    12      1     36      4      1   180.00   4.60240   2 ;     N1-    C1-    H1-    C4
    13     14     17     45      1   180.00   4.60240   2 ;    C10-   C11-   C14-   H10
    22     18      9     10      1   180.00  43.93200   2 ;    C17-    N2-    C8-    O2
    22     26     27     53      1   180.00   4.60240   2 ;    C17-   C20-   C21-   H18
    24     26     25     52      1   180.00   4.60240   2 ;    C18-   C20-   C19-   H17
    25     27     26     28      1   180.00   4.60240   2 ;    C19-   C21-   C20-   C22
    25     51     24     23      1   180.00   4.60240   2 ;    C19-   H16-   C18-    N4

; Include Position restraint file
#ifdef POSRES
#include "posre_MOL.itp"
#endif
