
[ moleculetype ]
;name            nrexcl
 MOL              3

[ atoms ]
;   nr  type  resi  res  atom  cgnr     charge      mass       ; qtot   bond_type
     1   CA     1   MOL    C1    1     0.622226     12.01000 ; qtot 0.622
     2   NB     1   MOL    N1    2    -0.862228     14.01000 ; qtot -0.240
     3   CA     1   MOL    C2    3     0.739307     12.01000 ; qtot 0.499
     4   CA     1   MOL    C3    4    -0.082166     12.01000 ; qtot 0.417
     5   CA     1   MOL    C4    5     0.813660     12.01000 ; qtot 1.231
     6   NB     1   MOL    N2    6    -0.822173     14.01000 ; qtot 0.409
     7   NC     1   MOL    N3    7    -0.598995     14.01000 ; qtot -0.190
     8   NA     1   MOL    N4    8    -0.332405     14.01000 ; qtot -0.523
     9   CD     1   MOL    C5    9     0.261318     12.01000 ; qtot -0.261
    10   CA     1   MOL    C6   10    -0.285191     12.01000 ; qtot -0.547
    11   CA     1   MOL    C7   11     0.405596     12.01000 ; qtot -0.141
    12   CA     1   MOL    C8   12    -0.285191     12.01000 ; qtot -0.426
    13   CA     1   MOL    C9   13    -0.176236     12.01000 ; qtot -0.602
    14   CA     1   MOL   C10   14     0.176961     12.01000 ; qtot -0.426
    15   CA     1   MOL   C11   15    -0.176236     12.01000 ; qtot -0.602
    16   NA     1   MOL    N5   16     0.297817     14.01000 ; qtot -0.304
    17   CC     1   MOL   C12   17     0.222026     12.01000 ; qtot -0.082
    18   CD     1   MOL   C13   18    -0.470188     12.01000 ; qtot -0.552
    19   CD     1   MOL   C14   19     0.192804     12.01000 ; qtot -0.359
    20   NC     1   MOL    N6   20    -0.556756     14.01000 ; qtot -0.916
    21   C3     1   MOL   C15   21     0.771254     12.01000 ; qtot -0.145
    22   CA     1   MOL   C16   22     0.022568     12.01000 ; qtot -0.122
    23   CA     1   MOL   C17   23    -0.149667     12.01000 ; qtot -0.272
    24   CA     1   MOL   C18   24    -0.272283     12.01000 ; qtot -0.544
    25   CA     1   MOL   C19   25     0.281493     12.01000 ; qtot -0.263
    26   CA     1   MOL   C20   26    -0.272283     12.01000 ; qtot -0.535
    27   CA     1   MOL   C21   27    -0.149667     12.01000 ; qtot -0.685
    28   C3     1   MOL   C22   28    -0.407554     12.01000 ; qtot -1.092
    29    N     1   MOL    N7   29    -0.678035     14.01000 ; qtot -1.770
    30    C     1   MOL   C23   30     1.024546     12.01000 ; qtot -0.746
    31    O     1   MOL    O1   31    -0.604146     16.00000 ; qtot -1.350
    32    N     1   MOL    N8   32    -0.772263     14.01000 ; qtot -2.122
    33   C3     1   MOL   C24   33    -0.525436     12.01000 ; qtot -2.648
    34   C3     1   MOL   C25   34    -0.525436     12.01000 ; qtot -3.173
    35   C3     1   MOL   C26   35    -0.525436     12.01000 ; qtot -3.698
    36   NH     1   MOL    N9   36    -1.007940     14.01000 ; qtot -4.706
    37   H5     1   MOL    H1   37     0.074339      1.00800 ; qtot -4.632
    38   H5     1   MOL    H2   38     0.142814      1.00800 ; qtot -4.489
    39   HA     1   MOL    H3   39     0.187187      1.00800 ; qtot -4.302
    40   HA     1   MOL    H4   40     0.187187      1.00800 ; qtot -4.115
    41   HA     1   MOL    H5   41     0.173240      1.00800 ; qtot -3.942
    42   HA     1   MOL    H6   42     0.173240      1.00800 ; qtot -3.768
    43   HA     1   MOL    H7   43     0.209124      1.00800 ; qtot -3.559
    44   HA     1   MOL    H8   44     0.149697      1.00800 ; qtot -3.410
    45   HA     1   MOL    H9   45     0.174188      1.00800 ; qtot -3.235
    46   HA     1   MOL   H10   46     0.174188      1.00800 ; qtot -3.061
    47   HA     1   MOL   H11   47     0.149697      1.00800 ; qtot -2.911
    48   HC     1   MOL   H12   48     0.114539      1.00800 ; qtot -2.797
    49   HC     1   MOL   H13   49     0.114539      1.00800 ; qtot -2.682
    50   HC     1   MOL   H14   50     0.114539      1.00800 ; qtot -2.568
    51   HN     1   MOL   H15   51     0.355976      1.00800 ; qtot -2.212
    52   HN     1   MOL   H16   52     0.341995      1.00800 ; qtot -1.870
    53   HC     1   MOL   H17   53     0.111360      1.00800 ; qtot -1.758
    54   HC     1   MOL   H18   54     0.111360      1.00800 ; qtot -1.647
    55   HC     1   MOL   H19   55     0.111360      1.00800 ; qtot -1.536
    56   HC     1   MOL   H20   56     0.111360      1.00800 ; qtot -1.424
    57   HC     1   MOL   H21   57     0.111360      1.00800 ; qtot -1.313
    58   HC     1   MOL   H22   58     0.111360      1.00800 ; qtot -1.202
    59   HC     1   MOL   H23   59     0.111360      1.00800 ; qtot -1.090
    60   HC     1   MOL   H24   60     0.111360      1.00800 ; qtot -0.979
    61   HC     1   MOL   H25   61     0.111360      1.00800 ; qtot -0.868
    62   HN     1   MOL   H26   62     0.433800      1.00800 ; qtot -0.434
    63   HN     1   MOL   H27   63     0.433800      1.00800 ; qtot 0.000

[ bonds ]
;   ai     aj funct   r             k
     1      2   1    1.3390e-01    4.0836e+05 ;     C1 - N1    
     1      6   1    1.3390e-01    4.0836e+05 ;     C1 - N2    
     1     37   1    1.0878e-01    2.8719e+05 ;     C1 - H1    
     2      3   1    1.3390e-01    4.0836e+05 ;     N1 - C2    
     3      4   1    1.3984e-01    3.8585e+05 ;     C2 - C3    
     3      8   1    1.3840e-01    3.5187e+05 ;     C2 - N4    
     4      5   1    1.3984e-01    3.8585e+05 ;     C3 - C4    
     4      7   1    1.3517e-01    3.9137e+05 ;     C3 - N3    
     5      6   1    1.3390e-01    4.0836e+05 ;     C4 - N2    
     5     36   1    1.3859e-01    3.4970e+05 ;     C4 - N9    
     7      9   1    1.3172e-01    4.3965e+05 ;     N3 - C5    
     8      9   1    1.3802e-01    3.5631e+05 ;     N4 - C5    
     8     14   1    1.3840e-01    3.5187e+05 ;     N4 - C10   
     9     38   1    1.0818e-01    2.9439e+05 ;     C5 - H2    
    10     11   1    1.3984e-01    3.8585e+05 ;     C6 - C7    
    10     15   1    1.3984e-01    3.8585e+05 ;     C6 - C11   
    10     39   1    1.0860e-01    2.8937e+05 ;     C6 - H3    
    11     12   1    1.3984e-01    3.8585e+05 ;     C7 - C8    
    11     32   1    1.4121e-01    3.2150e+05 ;     C7 - N8    
    12     13   1    1.3984e-01    3.8585e+05 ;     C8 - C9    
    12     40   1    1.0860e-01    2.8937e+05 ;     C8 - H4    
    13     14   1    1.3984e-01    3.8585e+05 ;     C9 - C10   
    13     41   1    1.0860e-01    2.8937e+05 ;     C9 - H5    
    14     15   1    1.3984e-01    3.8585e+05 ;    C10 - C11   
    15     42   1    1.0860e-01    2.8937e+05 ;    C11 - H6    
    16     17   1    1.3802e-01    3.5631e+05 ;     N5 - C12   
    16     20   1    1.3558e-01    4.3965e+05 ;     N5 - N6    
    16     22   1    1.3840e-01    3.5187e+05 ;     N5 - C16   
    17     18   1    1.3729e-01    4.1915e+05 ;    C12 - C13   
    17     29   1    1.3807e-01    3.5572e+05 ;    C12 - N7    
    18     19   1    1.4278e-01    3.5129e+05 ;    C13 - C14   
    18     43   1    1.0837e-01    2.9213e+05 ;    C13 - H7    
    19     20   1    1.3172e-01    4.3965e+05 ;    C14 - N6    
    19     21   1    1.5015e-01    2.8016e+05 ;    C14 - C15   
    21     33   1    1.5375e-01    2.5179e+05 ;    C15 - C24   
    21     34   1    1.5375e-01    2.5179e+05 ;    C15 - C25   
    21     35   1    1.5375e-01    2.5179e+05 ;    C15 - C26   
    22     23   1    1.3984e-01    3.8585e+05 ;    C16 - C17   
    22     27   1    1.3984e-01    3.8585e+05 ;    C16 - C21   
    23     24   1    1.3984e-01    3.8585e+05 ;    C17 - C18   
    23     44   1    1.0860e-01    2.8937e+05 ;    C17 - H8    
    24     25   1    1.3984e-01    3.8585e+05 ;    C18 - C19   
    24     45   1    1.0860e-01    2.8937e+05 ;    C18 - H9    
    25     26   1    1.3984e-01    3.8585e+05 ;    C19 - C20   
    25     28   1    1.5156e-01    2.6861e+05 ;    C19 - C22   
    26     27   1    1.3984e-01    3.8585e+05 ;    C20 - C21   
    26     46   1    1.0860e-01    2.8937e+05 ;    C20 - H10   
    27     47   1    1.0860e-01    2.8937e+05 ;    C21 - H11   
    28     48   1    1.0969e-01    2.7665e+05 ;    C22 - H12   
    28     49   1    1.0969e-01    2.7665e+05 ;    C22 - H13   
    28     50   1    1.0969e-01    2.7665e+05 ;    C22 - H14   
    29     30   1    1.3789e-01    3.5782e+05 ;     N7 - C23   
    29     51   1    1.0129e-01    3.3740e+05 ;     N7 - H15   
    30     31   1    1.2183e-01    5.3363e+05 ;    C23 - O1    
    30     32   1    1.3789e-01    3.5782e+05 ;    C23 - N8    
    32     52   1    1.0129e-01    3.3740e+05 ;     N8 - H16   
    33     53   1    1.0969e-01    2.7665e+05 ;    C24 - H17   
    33     54   1    1.0969e-01    2.7665e+05 ;    C24 - H18   
    33     55   1    1.0969e-01    2.7665e+05 ;    C24 - H19   
    34     56   1    1.0969e-01    2.7665e+05 ;    C25 - H20   
    34     57   1    1.0969e-01    2.7665e+05 ;    C25 - H21   
    34     58   1    1.0969e-01    2.7665e+05 ;    C25 - H22   
    35     59   1    1.0969e-01    2.7665e+05 ;    C26 - H23   
    35     60   1    1.0969e-01    2.7665e+05 ;    C26 - H24   
    35     61   1    1.0969e-01    2.7665e+05 ;    C26 - H25   
    36     62   1    1.0121e-01    3.3857e+05 ;     N9 - H26   
    36     63   1    1.0121e-01    3.3857e+05 ;     N9 - H27   

[ pairs ]
;   ai     aj    funct
     1      4      1 ;     C1 - C3    
     1      8      1 ;     C1 - N4    
     1     36      1 ;     C1 - N9    
     2      5      1 ;     N1 - C4    
     2      7      1 ;     N1 - N3    
     2      9      1 ;     N1 - C5    
     2     14      1 ;     N1 - C10   
     3     13      1 ;     C2 - C9    
     3     15      1 ;     C2 - C11   
     3     36      1 ;     C2 - N9    
     3     38      1 ;     C2 - H2    
     4     14      1 ;     C3 - C10   
     4     38      1 ;     C3 - H2    
     4     62      1 ;     C3 - H26   
     4     63      1 ;     C3 - H27   
     5      8      1 ;     C4 - N4    
     5      9      1 ;     C4 - C5    
     6      3      1 ;     N2 - C2    
     6      7      1 ;     N2 - N3    
     6     62      1 ;     N2 - H26   
     6     63      1 ;     N2 - H27   
     7     14      1 ;     N3 - C10   
     7     36      1 ;     N3 - N9    
     8     10      1 ;     N4 - C6    
     8     12      1 ;     N4 - C8    
     8     41      1 ;     N4 - H5    
     8     42      1 ;     N4 - H6    
     9     13      1 ;     C5 - C9    
     9     15      1 ;     C5 - C11   
    10     13      1 ;     C6 - C9    
    10     30      1 ;     C6 - C23   
    10     40      1 ;     C6 - H4    
    10     52      1 ;     C6 - H16   
    11     14      1 ;     C7 - C10   
    11     29      1 ;     C7 - N7    
    11     31      1 ;     C7 - O1    
    11     41      1 ;     C7 - H5    
    11     42      1 ;     C7 - H6    
    12     15      1 ;     C8 - C11   
    12     30      1 ;     C8 - C23   
    12     39      1 ;     C8 - H3    
    12     52      1 ;     C8 - H16   
    13     32      1 ;     C9 - N8    
    13     42      1 ;     C9 - H6    
    14     38      1 ;    C10 - H2    
    14     39      1 ;    C10 - H3    
    14     40      1 ;    C10 - H4    
    15     32      1 ;    C11 - N8    
    15     41      1 ;    C11 - H5    
    16     21      1 ;     N5 - C15   
    16     24      1 ;     N5 - C18   
    16     26      1 ;     N5 - C20   
    16     30      1 ;     N5 - C23   
    16     43      1 ;     N5 - H7    
    16     44      1 ;     N5 - H8    
    16     47      1 ;     N5 - H11   
    16     51      1 ;     N5 - H15   
    17     21      1 ;    C12 - C15   
    17     23      1 ;    C12 - C17   
    17     27      1 ;    C12 - C21   
    17     31      1 ;    C12 - O1    
    17     32      1 ;    C12 - N8    
    18     22      1 ;    C13 - C16   
    18     30      1 ;    C13 - C23   
    18     33      1 ;    C13 - C24   
    18     34      1 ;    C13 - C25   
    18     35      1 ;    C13 - C26   
    18     51      1 ;    C13 - H15   
    19     22      1 ;    C14 - C16   
    19     29      1 ;    C14 - N7    
    19     53      1 ;    C14 - H17   
    19     54      1 ;    C14 - H18   
    19     55      1 ;    C14 - H19   
    19     56      1 ;    C14 - H20   
    19     57      1 ;    C14 - H21   
    19     58      1 ;    C14 - H22   
    19     59      1 ;    C14 - H23   
    19     60      1 ;    C14 - H24   
    19     61      1 ;    C14 - H25   
    20     23      1 ;     N6 - C17   
    20     27      1 ;     N6 - C21   
    20     29      1 ;     N6 - N7    
    20     33      1 ;     N6 - C24   
    20     34      1 ;     N6 - C25   
    20     35      1 ;     N6 - C26   
    20     43      1 ;     N6 - H7    
    21     43      1 ;    C15 - H7    
    22     25      1 ;    C16 - C19   
    22     29      1 ;    C16 - N7    
    22     45      1 ;    C16 - H9    
    22     46      1 ;    C16 - H10   
    23     26      1 ;    C17 - C20   
    23     28      1 ;    C17 - C22   
    23     47      1 ;    C17 - H11   
    24     27      1 ;    C18 - C21   
    24     46      1 ;    C18 - H10   
    24     48      1 ;    C18 - H12   
    24     49      1 ;    C18 - H13   
    24     50      1 ;    C18 - H14   
    25     44      1 ;    C19 - H8    
    25     47      1 ;    C19 - H11   
    26     45      1 ;    C20 - H9    
    26     48      1 ;    C20 - H12   
    26     49      1 ;    C20 - H13   
    26     50      1 ;    C20 - H14   
    27     28      1 ;    C21 - C22   
    27     44      1 ;    C21 - H8    
    28     45      1 ;    C22 - H9    
    28     46      1 ;    C22 - H10   
    29     43      1 ;     N7 - H7    
    29     52      1 ;     N7 - H16   
    31     51      1 ;     O1 - H15   
    31     52      1 ;     O1 - H16   
    32     39      1 ;     N8 - H3    
    32     40      1 ;     N8 - H4    
    32     51      1 ;     N8 - H15   
    33     56      1 ;    C24 - H20   
    33     57      1 ;    C24 - H21   
    33     58      1 ;    C24 - H22   
    33     59      1 ;    C24 - H23   
    33     60      1 ;    C24 - H24   
    33     61      1 ;    C24 - H25   
    34     53      1 ;    C25 - H17   
    34     54      1 ;    C25 - H18   
    34     55      1 ;    C25 - H19   
    34     59      1 ;    C25 - H23   
    34     60      1 ;    C25 - H24   
    34     61      1 ;    C25 - H25   
    35     53      1 ;    C26 - H17   
    35     54      1 ;    C26 - H18   
    35     55      1 ;    C26 - H19   
    35     56      1 ;    C26 - H20   
    35     57      1 ;    C26 - H21   
    35     58      1 ;    C26 - H22   
    37      3      1 ;     H1 - C2    
    37      5      1 ;     H1 - C4    
    39     42      1 ;     H3 - H6    
    40     41      1 ;     H4 - H5    
    44     45      1 ;     H8 - H9    
    46     47      1 ;    H10 - H11   

[ angles ]
;   ai     aj     ak    funct   theta         cth
     1      2      3      1    1.1722e+02    5.7153e+02 ;     C1 - N1     - C2    
     1      6      5      1    1.1722e+02    5.7153e+02 ;     C1 - N2     - C4    
     2      1      6      1    1.2726e+02    5.9329e+02 ;     N1 - C1     - N2    
     2      1     37      1    1.1582e+02    4.3430e+02 ;     N1 - C1     - H1    
     2      3      4      1    1.2294e+02    5.7572e+02 ;     N1 - C2     - C3    
     2      3      8      1    1.2709e+02    5.8409e+02 ;     N1 - C2     - N4    
     3      4      5      1    1.2002e+02    5.5731e+02 ;     C2 - C3     - C4    
     3      4      7      1    1.1972e+02    5.8158e+02 ;     C2 - C3     - N3    
     3      8      9      1    1.1315e+02    5.6400e+02 ;     C2 - N4     - C5    
     3      8     14      1    1.2005e+02    5.4643e+02 ;     C2 - N4     - C10   
     4      3      8      1    1.1834e+02    5.7823e+02 ;     C3 - C2     - N4    
     4      5      6      1    1.2294e+02    5.7572e+02 ;     C3 - C4     - N2    
     4      5     36      1    1.2095e+02    5.7153e+02 ;     C3 - C4     - N9    
     4      7      9      1    1.0488e+02    6.0668e+02 ;     C3 - N3     - C5    
     5      4      7      1    1.1972e+02    5.8158e+02 ;     C4 - C3     - N3    
     5     36     62      1    1.1607e+02    4.0501e+02 ;     C4 - N9     - H26   
     5     36     63      1    1.1607e+02    4.0501e+02 ;     C4 - N9     - H27   
     6      1     37      1    1.1582e+02    4.3430e+02 ;     N2 - C1     - H1    
     6      5     36      1    1.1694e+02    6.0835e+02 ;     N2 - C4     - N9    
     7      9      8      1    1.1222e+02    6.2676e+02 ;     N3 - C5     - N4    
     7      9     38      1    1.2552e+02    4.2342e+02 ;     N3 - C5     - H2    
     8      9     38      1    1.2155e+02    4.1505e+02 ;     N4 - C5     - H2    
     8     14     13      1    1.1834e+02    5.7823e+02 ;     N4 - C10    - C9    
     8     14     15      1    1.1834e+02    5.7823e+02 ;     N4 - C10    - C11   
     9      8     14      1    1.1315e+02    5.6400e+02 ;     C5 - N4     - C10   
    10     11     12      1    1.2002e+02    5.5731e+02 ;     C6 - C7     - C8    
    10     11     32      1    1.2019e+02    5.6819e+02 ;     C6 - C7     - N8    
    10     15     14      1    1.2002e+02    5.5731e+02 ;     C6 - C11    - C10   
    10     15     42      1    1.1988e+02    4.0334e+02 ;     C6 - C11    - H6    
    11     10     15      1    1.2002e+02    5.5731e+02 ;     C7 - C6     - C11   
    11     10     39      1    1.1988e+02    4.0334e+02 ;     C7 - C6     - H3    
    11     12     13      1    1.2002e+02    5.5731e+02 ;     C7 - C8     - C9    
    11     12     40      1    1.1988e+02    4.0334e+02 ;     C7 - C8     - H4    
    11     32     30      1    1.2371e+02    5.3388e+02 ;     C7 - N8     - C23   
    11     32     52      1    1.1600e+02    3.9832e+02 ;     C7 - N8     - H16   
    12     11     32      1    1.2019e+02    5.6819e+02 ;     C8 - C7     - N8    
    12     13     14      1    1.2002e+02    5.5731e+02 ;     C8 - C9     - C10   
    12     13     41      1    1.1988e+02    4.0334e+02 ;     C8 - C9     - H5    
    13     12     40      1    1.1988e+02    4.0334e+02 ;     C9 - C8     - H4    
    13     14     15      1    1.2002e+02    5.5731e+02 ;     C9 - C10    - C11   
    14     13     41      1    1.1988e+02    4.0334e+02 ;    C10 - C9     - H5    
    14     15     42      1    1.1988e+02    4.0334e+02 ;    C10 - C11    - H6    
    15     10     39      1    1.1988e+02    4.0334e+02 ;    C11 - C6     - H3    
    16     17     18      1    1.0699e+02    6.1421e+02 ;     N5 - C12    - C13   
    16     17     29      1    1.2212e+02    5.8743e+02 ;     N5 - C12    - N7    
    16     20     19      1    1.0382e+02    6.2342e+02 ;     N5 - N6     - C14   
    16     22     23      1    1.1834e+02    5.7823e+02 ;     N5 - C16    - C17   
    16     22     27      1    1.1834e+02    5.7823e+02 ;     N5 - C16    - C21   
    17     16     20      1    1.1236e+02    5.8576e+02 ;    C12 - N5     - N6    
    17     16     22      1    1.1315e+02    5.6400e+02 ;    C12 - N5     - C16   
    17     18     19      1    1.1419e+02    5.7070e+02 ;    C12 - C13    - C14   
    17     18     43      1    1.2176e+02    4.0585e+02 ;    C12 - C13    - H7    
    17     29     30      1    1.2327e+02    5.4141e+02 ;    C12 - N7     - C23   
    17     29     51      1    1.1926e+02    4.0083e+02 ;    C12 - N7     - H15   
    18     17     29      1    1.2133e+02    5.7656e+02 ;    C13 - C12    - N7    
    18     19     20      1    1.1256e+02    5.9915e+02 ;    C13 - C14    - N6    
    18     19     21      1    1.1597e+02    5.4057e+02 ;    C13 - C14    - C15   
    19     18     43      1    1.2107e+02    3.9413e+02 ;    C14 - C13    - H7    
    19     21     33      1    1.1193e+02    5.3137e+02 ;    C14 - C15    - C24   
    19     21     34      1    1.1193e+02    5.3137e+02 ;    C14 - C15    - C25   
    19     21     35      1    1.1193e+02    5.3137e+02 ;    C14 - C15    - C26   
    20     16     22      1    1.1785e+02    5.7070e+02 ;     N6 - N5     - C16   
    20     19     21      1    1.2241e+02    5.5647e+02 ;     N6 - C14    - C15   
    21     33     53      1    1.0980e+02    3.8744e+02 ;    C15 - C24    - H17   
    21     33     54      1    1.0980e+02    3.8744e+02 ;    C15 - C24    - H18   
    21     33     55      1    1.0980e+02    3.8744e+02 ;    C15 - C24    - H19   
    21     34     56      1    1.0980e+02    3.8744e+02 ;    C15 - C25    - H20   
    21     34     57      1    1.0980e+02    3.8744e+02 ;    C15 - C25    - H21   
    21     34     58      1    1.0980e+02    3.8744e+02 ;    C15 - C25    - H22   
    21     35     59      1    1.0980e+02    3.8744e+02 ;    C15 - C26    - H23   
    21     35     60      1    1.0980e+02    3.8744e+02 ;    C15 - C26    - H24   
    21     35     61      1    1.0980e+02    3.8744e+02 ;    C15 - C26    - H25   
    22     23     24      1    1.2002e+02    5.5731e+02 ;    C16 - C17    - C18   
    22     23     44      1    1.1988e+02    4.0334e+02 ;    C16 - C17    - H8    
    22     27     26      1    1.2002e+02    5.5731e+02 ;    C16 - C21    - C20   
    22     27     47      1    1.1988e+02    4.0334e+02 ;    C16 - C21    - H11   
    23     22     27      1    1.2002e+02    5.5731e+02 ;    C17 - C16    - C21   
    23     24     25      1    1.2002e+02    5.5731e+02 ;    C17 - C18    - C19   
    23     24     45      1    1.1988e+02    4.0334e+02 ;    C17 - C18    - H9    
    24     23     44      1    1.1988e+02    4.0334e+02 ;    C18 - C17    - H8    
    24     25     26      1    1.2002e+02    5.5731e+02 ;    C18 - C19    - C20   
    24     25     28      1    1.2077e+02    5.3137e+02 ;    C18 - C19    - C22   
    25     24     45      1    1.1988e+02    4.0334e+02 ;    C19 - C18    - H9    
    25     26     27      1    1.2002e+02    5.5731e+02 ;    C19 - C20    - C21   
    25     26     46      1    1.1988e+02    4.0334e+02 ;    C19 - C20    - H10   
    25     28     48      1    1.1047e+02    3.9162e+02 ;    C19 - C22    - H12   
    25     28     49      1    1.1047e+02    3.9162e+02 ;    C19 - C22    - H13   
    25     28     50      1    1.1047e+02    3.9162e+02 ;    C19 - C22    - H14   
    26     25     28      1    1.2077e+02    5.3137e+02 ;    C20 - C19    - C22   
    26     27     47      1    1.1988e+02    4.0334e+02 ;    C20 - C21    - H11   
    27     26     46      1    1.1988e+02    4.0334e+02 ;    C21 - C20    - H10   
    29     30     31      1    1.2305e+02    6.2091e+02 ;     N7 - C23    - O1    
    29     30     32      1    1.1356e+02    6.1003e+02 ;     N7 - C23    - N8    
    30     29     51      1    1.1755e+02    4.0417e+02 ;    C23 - N7     - H15   
    30     32     52      1    1.1755e+02    4.0417e+02 ;    C23 - N8     - H16   
    31     30     32      1    1.2305e+02    6.2091e+02 ;     O1 - C23    - N8    
    33     21     34      1    1.1151e+02    5.2635e+02 ;    C24 - C15    - C25   
    33     21     35      1    1.1151e+02    5.2635e+02 ;    C24 - C15    - C26   
    34     21     35      1    1.1151e+02    5.2635e+02 ;    C25 - C15    - C26   
    48     28     49      1    1.0758e+02    3.2970e+02 ;    H12 - C22    - H13   
    48     28     50      1    1.0758e+02    3.2970e+02 ;    H12 - C22    - H14   
    49     28     50      1    1.0758e+02    3.2970e+02 ;    H13 - C22    - H14   
    53     33     54      1    1.0758e+02    3.2970e+02 ;    H17 - C24    - H18   
    53     33     55      1    1.0758e+02    3.2970e+02 ;    H17 - C24    - H19   
    54     33     55      1    1.0758e+02    3.2970e+02 ;    H18 - C24    - H19   
    56     34     57      1    1.0758e+02    3.2970e+02 ;    H20 - C25    - H21   
    56     34     58      1    1.0758e+02    3.2970e+02 ;    H20 - C25    - H22   
    57     34     58      1    1.0758e+02    3.2970e+02 ;    H21 - C25    - H22   
    59     35     60      1    1.0758e+02    3.2970e+02 ;    H23 - C26    - H24   
    59     35     61      1    1.0758e+02    3.2970e+02 ;    H23 - C26    - H25   
    60     35     61      1    1.0758e+02    3.2970e+02 ;    H24 - C26    - H25   
    62     36     63      1    1.1512e+02    3.3556e+02 ;    H26 - N9     - H27   

[ dihedrals ] ; propers
; treated as RBs in GROMACS to use combine multiple AMBER torsions per quartet
;    I      j      k      l   func    C0         C1         C2         C3         C4         C5
     1      2      3      4      3   40.16640    0.00000  -40.16640    0.00000    0.00000    0.00000 ;     C1-    N1-    C2-    C3
     1      2      3      8      3   40.16640    0.00000  -40.16640    0.00000    0.00000    0.00000 ;     C1-    N1-    C2-    N4
     1      6      5      4      3   40.16640    0.00000  -40.16640    0.00000    0.00000    0.00000 ;     C1-    N2-    C4-    C3
     1      6      5     36      3   40.16640    0.00000  -40.16640    0.00000    0.00000    0.00000 ;     C1-    N2-    C4-    N9
     2      1      6      5      3   40.16640    0.00000  -40.16640    0.00000    0.00000    0.00000 ;     N1-    C1-    N2-    C4
     2      3      4      5      3   30.33400    0.00000  -30.33400    0.00000    0.00000    0.00000 ;     N1-    C2-    C3-    C4
     2      3      4      7      3   30.33400    0.00000  -30.33400    0.00000    0.00000    0.00000 ;     N1-    C2-    C3-    N3
     2      3      8      9      3    2.51040    0.00000   -2.51040    0.00000    0.00000    0.00000 ;     N1-    C2-    N4-    C5
     2      3      8     14      3    2.51040    0.00000   -2.51040    0.00000    0.00000    0.00000 ;     N1-    C2-    N4-   C10
     3      4      5      6      3   30.33400    0.00000  -30.33400    0.00000    0.00000    0.00000 ;     C2-    C3-    C4-    N2
     3      4      5     36      3   30.33400    0.00000  -30.33400    0.00000    0.00000    0.00000 ;     C2-    C3-    C4-    N9
     3      4      7      9      3   40.16640    0.00000  -40.16640    0.00000    0.00000    0.00000 ;     C2-    C3-    N3-    C5
     3      8      9      7      3   14.22560    0.00000  -14.22560    0.00000    0.00000    0.00000 ;     C2-    N4-    C5-    N3
     3      8      9     38      3   14.22560    0.00000  -14.22560    0.00000    0.00000    0.00000 ;     C2-    N4-    C5-    H2
     3      8     14     13      3    2.51040    0.00000   -2.51040    0.00000    0.00000    0.00000 ;     C2-    N4-   C10-    C9
     3      8     14     15      3    2.51040    0.00000   -2.51040    0.00000    0.00000    0.00000 ;     C2-    N4-   C10-   C11
     4      3      8      9      3    2.51040    0.00000   -2.51040    0.00000    0.00000    0.00000 ;     C3-    C2-    N4-    C5
     4      3      8     14      3    2.51040    0.00000   -2.51040    0.00000    0.00000    0.00000 ;     C3-    C2-    N4-   C10
     4      5     36     62      3    8.78640    0.00000   -8.78640    0.00000    0.00000    0.00000 ;     C3-    C4-    N9-   H26
     4      5     36     63      3    8.78640    0.00000   -8.78640    0.00000    0.00000    0.00000 ;     C3-    C4-    N9-   H27
     4      7      9      8      3   39.74800    0.00000  -39.74800    0.00000    0.00000    0.00000 ;     C3-    N3-    C5-    N4
     4      7      9     38      3   39.74800    0.00000  -39.74800    0.00000    0.00000    0.00000 ;     C3-    N3-    C5-    H2
     5      4      3      8      3   30.33400    0.00000  -30.33400    0.00000    0.00000    0.00000 ;     C4-    C3-    C2-    N4
     5      4      7      9      3   40.16640    0.00000  -40.16640    0.00000    0.00000    0.00000 ;     C4-    C3-    N3-    C5
     6      1      2      3      3   40.16640    0.00000  -40.16640    0.00000    0.00000    0.00000 ;     N2-    C1-    N1-    C2
     6      5      4      7      3   30.33400    0.00000  -30.33400    0.00000    0.00000    0.00000 ;     N2-    C4-    C3-    N3
     6      5     36     62      3    8.78640    0.00000   -8.78640    0.00000    0.00000    0.00000 ;     N2-    C4-    N9-   H26
     6      5     36     63      3    8.78640    0.00000   -8.78640    0.00000    0.00000    0.00000 ;     N2-    C4-    N9-   H27
     7      4      3      8      3   30.33400    0.00000  -30.33400    0.00000    0.00000    0.00000 ;     N3-    C3-    C2-    N4
     7      4      5     36      3   30.33400    0.00000  -30.33400    0.00000    0.00000    0.00000 ;     N3-    C3-    C4-    N9
     7      9      8     14      3   14.22560    0.00000  -14.22560    0.00000    0.00000    0.00000 ;     N3-    C5-    N4-   C10
     8     14     13     12      3   30.33400    0.00000  -30.33400    0.00000    0.00000    0.00000 ;     N4-   C10-    C9-    C8
     8     14     13     41      3   30.33400    0.00000  -30.33400    0.00000    0.00000    0.00000 ;     N4-   C10-    C9-    H5
     8     14     15     10      3   30.33400    0.00000  -30.33400    0.00000    0.00000    0.00000 ;     N4-   C10-   C11-    C6
     8     14     15     42      3   30.33400    0.00000  -30.33400    0.00000    0.00000    0.00000 ;     N4-   C10-   C11-    H6
     9      8     14     13      3    2.51040    0.00000   -2.51040    0.00000    0.00000    0.00000 ;     C5-    N4-   C10-    C9
     9      8     14     15      3    2.51040    0.00000   -2.51040    0.00000    0.00000    0.00000 ;     C5-    N4-   C10-   C11
    10     11     12     13      3   30.33400    0.00000  -30.33400    0.00000    0.00000    0.00000 ;     C6-    C7-    C8-    C9
    10     11     12     40      3   30.33400    0.00000  -30.33400    0.00000    0.00000    0.00000 ;     C6-    C7-    C8-    H4
    10     11     32     30      3    3.76560    0.00000   -3.76560    0.00000    0.00000    0.00000 ;     C6-    C7-    N8-   C23
    10     11     32     52      3    3.76560    0.00000   -3.76560    0.00000    0.00000    0.00000 ;     C6-    C7-    N8-   H16
    10     15     14     13      3   30.33400    0.00000  -30.33400    0.00000    0.00000    0.00000 ;     C6-   C11-   C10-    C9
    11     10     15     14      3   30.33400    0.00000  -30.33400    0.00000    0.00000    0.00000 ;     C7-    C6-   C11-   C10
    11     10     15     42      3   30.33400    0.00000  -30.33400    0.00000    0.00000    0.00000 ;     C7-    C6-   C11-    H6
    11     12     13     14      3   30.33400    0.00000  -30.33400    0.00000    0.00000    0.00000 ;     C7-    C8-    C9-   C10
    11     12     13     41      3   30.33400    0.00000  -30.33400    0.00000    0.00000    0.00000 ;     C7-    C8-    C9-    H5
    11     32     30     29      3   20.92000    0.00000  -20.92000    0.00000    0.00000    0.00000 ;     C7-    N8-   C23-    N7
    11     32     30     31      3   20.92000    0.00000  -20.92000    0.00000    0.00000    0.00000 ;     C7-    N8-   C23-    O1
    12     11     10     15      3   30.33400    0.00000  -30.33400    0.00000    0.00000    0.00000 ;     C8-    C7-    C6-   C11
    12     11     10     39      3   30.33400    0.00000  -30.33400    0.00000    0.00000    0.00000 ;     C8-    C7-    C6-    H3
    12     11     32     30      3    3.76560    0.00000   -3.76560    0.00000    0.00000    0.00000 ;     C8-    C7-    N8-   C23
    12     11     32     52      3    3.76560    0.00000   -3.76560    0.00000    0.00000    0.00000 ;     C8-    C7-    N8-   H16
    12     13     14     15      3   30.33400    0.00000  -30.33400    0.00000    0.00000    0.00000 ;     C8-    C9-   C10-   C11
    13     12     11     32      3   30.33400    0.00000  -30.33400    0.00000    0.00000    0.00000 ;     C9-    C8-    C7-    N8
    13     14     15     42      3   30.33400    0.00000  -30.33400    0.00000    0.00000    0.00000 ;     C9-   C10-   C11-    H6
    14      8      9     38      3   14.22560    0.00000  -14.22560    0.00000    0.00000    0.00000 ;    C10-    N4-    C5-    H2
    14     13     12     40      3   30.33400    0.00000  -30.33400    0.00000    0.00000    0.00000 ;    C10-    C9-    C8-    H4
    14     15     10     39      3   30.33400    0.00000  -30.33400    0.00000    0.00000    0.00000 ;    C10-   C11-    C6-    H3
    15     10     11     32      3   30.33400    0.00000  -30.33400    0.00000    0.00000    0.00000 ;    C11-    C6-    C7-    N8
    15     14     13     41      3   30.33400    0.00000  -30.33400    0.00000    0.00000    0.00000 ;    C11-   C10-    C9-    H5
    16     17     18     19      3   33.47200    0.00000  -33.47200    0.00000    0.00000    0.00000 ;     N5-   C12-   C13-   C14
    16     17     18     43      3   33.47200    0.00000  -33.47200    0.00000    0.00000    0.00000 ;     N5-   C12-   C13-    H7
    16     17     29     30      3   13.80720    0.00000  -13.80720    0.00000    0.00000    0.00000 ;     N5-   C12-    N7-   C23
    16     17     29     51      3   13.80720    0.00000  -13.80720    0.00000    0.00000    0.00000 ;     N5-   C12-    N7-   H15
    16     20     19     18      3   39.74800    0.00000  -39.74800    0.00000    0.00000    0.00000 ;     N5-    N6-   C14-   C13
    16     20     19     21      3   39.74800    0.00000  -39.74800    0.00000    0.00000    0.00000 ;     N5-    N6-   C14-   C15
    16     22     23     24      3   30.33400    0.00000  -30.33400    0.00000    0.00000    0.00000 ;     N5-   C16-   C17-   C18
    16     22     23     44      3   30.33400    0.00000  -30.33400    0.00000    0.00000    0.00000 ;     N5-   C16-   C17-    H8
    16     22     27     26      3   30.33400    0.00000  -30.33400    0.00000    0.00000    0.00000 ;     N5-   C16-   C21-   C20
    16     22     27     47      3   30.33400    0.00000  -30.33400    0.00000    0.00000    0.00000 ;     N5-   C16-   C21-   H11
    17     16     20     19      3   40.16640    0.00000  -40.16640    0.00000    0.00000    0.00000 ;    C12-    N5-    N6-   C14
    17     16     22     23      3    2.51040    0.00000   -2.51040    0.00000    0.00000    0.00000 ;    C12-    N5-   C16-   C17
    17     16     22     27      3    2.51040    0.00000   -2.51040    0.00000    0.00000    0.00000 ;    C12-    N5-   C16-   C21
    17     18     19     20      3   33.47200    0.00000  -33.47200    0.00000    0.00000    0.00000 ;    C12-   C13-   C14-    N6
    17     18     19     21      3   33.47200    0.00000  -33.47200    0.00000    0.00000    0.00000 ;    C12-   C13-   C14-   C15
    17     29     30     31      3   20.92000    0.00000  -20.92000    0.00000    0.00000    0.00000 ;    C12-    N7-   C23-    O1
    17     29     30     32      3   20.92000    0.00000  -20.92000    0.00000    0.00000    0.00000 ;    C12-    N7-   C23-    N8
    18     17     16     20      3   14.22560    0.00000  -14.22560    0.00000    0.00000    0.00000 ;    C13-   C12-    N5-    N6
    18     17     16     22      3   14.22560    0.00000  -14.22560    0.00000    0.00000    0.00000 ;    C13-   C12-    N5-   C16
    18     17     29     30      3   13.80720    0.00000  -13.80720    0.00000    0.00000    0.00000 ;    C13-   C12-    N7-   C23
    18     17     29     51      3   13.80720    0.00000  -13.80720    0.00000    0.00000    0.00000 ;    C13-   C12-    N7-   H15
    18     19     21     33      3    0.00000    0.00000    0.00000    0.00000    0.00000    0.00000 ;    C13-   C14-   C15-   C24
    18     19     21     34      3    0.00000    0.00000    0.00000    0.00000    0.00000    0.00000 ;    C13-   C14-   C15-   C25
    18     19     21     35      3    0.00000    0.00000    0.00000    0.00000    0.00000    0.00000 ;    C13-   C14-   C15-   C26
    19     18     17     29      3   33.47200    0.00000  -33.47200    0.00000    0.00000    0.00000 ;    C14-   C13-   C12-    N7
    19     20     16     22      3   40.16640    0.00000  -40.16640    0.00000    0.00000    0.00000 ;    C14-    N6-    N5-   C16
    19     21     33     53      3    0.65084    1.95253    0.00000   -2.60338    0.00000    0.00000 ;    C14-   C15-   C24-   H17
    19     21     33     54      3    0.65084    1.95253    0.00000   -2.60338    0.00000    0.00000 ;    C14-   C15-   C24-   H18
    19     21     33     55      3    0.65084    1.95253    0.00000   -2.60338    0.00000    0.00000 ;    C14-   C15-   C24-   H19
    19     21     34     56      3    0.65084    1.95253    0.00000   -2.60338    0.00000    0.00000 ;    C14-   C15-   C25-   H20
    19     21     34     57      3    0.65084    1.95253    0.00000   -2.60338    0.00000    0.00000 ;    C14-   C15-   C25-   H21
    19     21     34     58      3    0.65084    1.95253    0.00000   -2.60338    0.00000    0.00000 ;    C14-   C15-   C25-   H22
    19     21     35     59      3    0.65084    1.95253    0.00000   -2.60338    0.00000    0.00000 ;    C14-   C15-   C26-   H23
    19     21     35     60      3    0.65084    1.95253    0.00000   -2.60338    0.00000    0.00000 ;    C14-   C15-   C26-   H24
    19     21     35     61      3    0.65084    1.95253    0.00000   -2.60338    0.00000    0.00000 ;    C14-   C15-   C26-   H25
    20     16     17     29      3   14.22560    0.00000  -14.22560    0.00000    0.00000    0.00000 ;     N6-    N5-   C12-    N7
    20     16     22     23      3    2.51040    0.00000   -2.51040    0.00000    0.00000    0.00000 ;     N6-    N5-   C16-   C17
    20     16     22     27      3    2.51040    0.00000   -2.51040    0.00000    0.00000    0.00000 ;     N6-    N5-   C16-   C21
    20     19     18     43      3   33.47200    0.00000  -33.47200    0.00000    0.00000    0.00000 ;     N6-   C14-   C13-    H7
    20     19     21     33      3    0.00000    0.00000    0.00000    0.00000    0.00000    0.00000 ;     N6-   C14-   C15-   C24
    20     19     21     34      3    0.00000    0.00000    0.00000    0.00000    0.00000    0.00000 ;     N6-   C14-   C15-   C25
    20     19     21     35      3    0.00000    0.00000    0.00000    0.00000    0.00000    0.00000 ;     N6-   C14-   C15-   C26
    21     19     18     43      3   33.47200    0.00000  -33.47200    0.00000    0.00000    0.00000 ;    C15-   C14-   C13-    H7
    22     16     17     29      3   14.22560    0.00000  -14.22560    0.00000    0.00000    0.00000 ;    C16-    N5-   C12-    N7
    22     23     24     25      3   30.33400    0.00000  -30.33400    0.00000    0.00000    0.00000 ;    C16-   C17-   C18-   C19
    22     23     24     45      3   30.33400    0.00000  -30.33400    0.00000    0.00000    0.00000 ;    C16-   C17-   C18-    H9
    22     27     26     25      3   30.33400    0.00000  -30.33400    0.00000    0.00000    0.00000 ;    C16-   C21-   C20-   C19
    22     27     26     46      3   30.33400    0.00000  -30.33400    0.00000    0.00000    0.00000 ;    C16-   C21-   C20-   H10
    23     22     27     26      3   30.33400    0.00000  -30.33400    0.00000    0.00000    0.00000 ;    C17-   C16-   C21-   C20
    23     22     27     47      3   30.33400    0.00000  -30.33400    0.00000    0.00000    0.00000 ;    C17-   C16-   C21-   H11
    23     24     25     26      3   30.33400    0.00000  -30.33400    0.00000    0.00000    0.00000 ;    C17-   C18-   C19-   C20
    23     24     25     28      3   30.33400    0.00000  -30.33400    0.00000    0.00000    0.00000 ;    C17-   C18-   C19-   C22
    24     23     22     27      3   30.33400    0.00000  -30.33400    0.00000    0.00000    0.00000 ;    C18-   C17-   C16-   C21
    24     25     26     27      3   30.33400    0.00000  -30.33400    0.00000    0.00000    0.00000 ;    C18-   C19-   C20-   C21
    24     25     26     46      3   30.33400    0.00000  -30.33400    0.00000    0.00000    0.00000 ;    C18-   C19-   C20-   H10
    24     25     28     48      3    0.00000    0.00000    0.00000    0.00000    0.00000    0.00000 ;    C18-   C19-   C22-   H12
    24     25     28     49      3    0.00000    0.00000    0.00000    0.00000    0.00000    0.00000 ;    C18-   C19-   C22-   H13
    24     25     28     50      3    0.00000    0.00000    0.00000    0.00000    0.00000    0.00000 ;    C18-   C19-   C22-   H14
    25     24     23     44      3   30.33400    0.00000  -30.33400    0.00000    0.00000    0.00000 ;    C19-   C18-   C17-    H8
    25     26     27     47      3   30.33400    0.00000  -30.33400    0.00000    0.00000    0.00000 ;    C19-   C20-   C21-   H11
    26     25     24     45      3   30.33400    0.00000  -30.33400    0.00000    0.00000    0.00000 ;    C20-   C19-   C18-    H9
    26     25     28     48      3    0.00000    0.00000    0.00000    0.00000    0.00000    0.00000 ;    C20-   C19-   C22-   H12
    26     25     28     49      3    0.00000    0.00000    0.00000    0.00000    0.00000    0.00000 ;    C20-   C19-   C22-   H13
    26     25     28     50      3    0.00000    0.00000    0.00000    0.00000    0.00000    0.00000 ;    C20-   C19-   C22-   H14
    27     22     23     44      3   30.33400    0.00000  -30.33400    0.00000    0.00000    0.00000 ;    C21-   C16-   C17-    H8
    27     26     25     28      3   30.33400    0.00000  -30.33400    0.00000    0.00000    0.00000 ;    C21-   C20-   C19-   C22
    28     25     24     45      3   30.33400    0.00000  -30.33400    0.00000    0.00000    0.00000 ;    C22-   C19-   C18-    H9
    28     25     26     46      3   30.33400    0.00000  -30.33400    0.00000    0.00000    0.00000 ;    C22-   C19-   C20-   H10
    29     17     18     43      3   33.47200    0.00000  -33.47200    0.00000    0.00000    0.00000 ;     N7-   C12-   C13-    H7
    29     30     32     52      3   20.92000    0.00000  -20.92000    0.00000    0.00000    0.00000 ;     N7-   C23-    N8-   H16
    31     30     29     51      3   29.28800   -8.36800  -20.92000    0.00000    0.00000    0.00000 ;     O1-   C23-    N7-   H15
    31     30     32     52      3   29.28800   -8.36800  -20.92000    0.00000    0.00000    0.00000 ;     O1-   C23-    N8-   H16
    32     11     10     39      3   30.33400    0.00000  -30.33400    0.00000    0.00000    0.00000 ;     N8-    C7-    C6-    H3
    32     11     12     40      3   30.33400    0.00000  -30.33400    0.00000    0.00000    0.00000 ;     N8-    C7-    C8-    H4
    32     30     29     51      3   20.92000    0.00000  -20.92000    0.00000    0.00000    0.00000 ;     N8-   C23-    N7-   H15
    33     21     34     56      3    0.66944    2.00832    0.00000   -2.67776    0.00000    0.00000 ;    C24-   C15-   C25-   H20
    33     21     34     57      3    0.66944    2.00832    0.00000   -2.67776    0.00000    0.00000 ;    C24-   C15-   C25-   H21
    33     21     34     58      3    0.66944    2.00832    0.00000   -2.67776    0.00000    0.00000 ;    C24-   C15-   C25-   H22
    33     21     35     59      3    0.66944    2.00832    0.00000   -2.67776    0.00000    0.00000 ;    C24-   C15-   C26-   H23
    33     21     35     60      3    0.66944    2.00832    0.00000   -2.67776    0.00000    0.00000 ;    C24-   C15-   C26-   H24
    33     21     35     61      3    0.66944    2.00832    0.00000   -2.67776    0.00000    0.00000 ;    C24-   C15-   C26-   H25
    34     21     33     53      3    0.66944    2.00832    0.00000   -2.67776    0.00000    0.00000 ;    C25-   C15-   C24-   H17
    34     21     33     54      3    0.66944    2.00832    0.00000   -2.67776    0.00000    0.00000 ;    C25-   C15-   C24-   H18
    34     21     33     55      3    0.66944    2.00832    0.00000   -2.67776    0.00000    0.00000 ;    C25-   C15-   C24-   H19
    34     21     35     59      3    0.66944    2.00832    0.00000   -2.67776    0.00000    0.00000 ;    C25-   C15-   C26-   H23
    34     21     35     60      3    0.66944    2.00832    0.00000   -2.67776    0.00000    0.00000 ;    C25-   C15-   C26-   H24
    34     21     35     61      3    0.66944    2.00832    0.00000   -2.67776    0.00000    0.00000 ;    C25-   C15-   C26-   H25
    35     21     33     53      3    0.66944    2.00832    0.00000   -2.67776    0.00000    0.00000 ;    C26-   C15-   C24-   H17
    35     21     33     54      3    0.66944    2.00832    0.00000   -2.67776    0.00000    0.00000 ;    C26-   C15-   C24-   H18
    35     21     33     55      3    0.66944    2.00832    0.00000   -2.67776    0.00000    0.00000 ;    C26-   C15-   C24-   H19
    35     21     34     56      3    0.66944    2.00832    0.00000   -2.67776    0.00000    0.00000 ;    C26-   C15-   C25-   H20
    35     21     34     57      3    0.66944    2.00832    0.00000   -2.67776    0.00000    0.00000 ;    C26-   C15-   C25-   H21
    35     21     34     58      3    0.66944    2.00832    0.00000   -2.67776    0.00000    0.00000 ;    C26-   C15-   C25-   H22
    37      1      2      3      3   40.16640    0.00000  -40.16640    0.00000    0.00000    0.00000 ;     H1-    C1-    N1-    C2
    37      1      6      5      3   40.16640    0.00000  -40.16640    0.00000    0.00000    0.00000 ;     H1-    C1-    N2-    C4
    39     10     15     42      3   30.33400    0.00000  -30.33400    0.00000    0.00000    0.00000 ;     H3-    C6-   C11-    H6
    40     12     13     41      3   30.33400    0.00000  -30.33400    0.00000    0.00000    0.00000 ;     H4-    C8-    C9-    H5
    44     23     24     45      3   30.33400    0.00000  -30.33400    0.00000    0.00000    0.00000 ;     H8-   C17-   C18-    H9
    46     26     27     47      3   30.33400    0.00000  -30.33400    0.00000    0.00000    0.00000 ;    H10-   C20-   C21-   H11

[ dihedrals ] ; impropers
; treated as propers in GROMACS to use correct AMBER analytical function
;    I      j      k      l   func   phase     kd      pn
     3      5      4      7      1   180.00   4.60240   2 ;     C2-    C4-    C3-    N3
     3     14      8      9      1   180.00   4.60240   2 ;     C2-   C10-    N4-    C5
     4      6      5     36      1   180.00   4.60240   2 ;     C3-    N2-    C4-    N9
     4      8      3      2      1   180.00   4.60240   2 ;     C3-    N4-    C2-    N1
     5     62     36     63      1   180.00   4.60240   2 ;     C4-   H26-    N9-   H27
     6      1      2     37      1   180.00   4.60240   2 ;     N2-    C1-    N1-    H1
    10     12     11     32      1   180.00   4.60240   2 ;     C6-    C8-    C7-    N8
    10     14     15     42      1   180.00   4.60240   2 ;     C6-   C10-   C11-    H6
    11     13     12     40      1   180.00   4.60240   2 ;     C7-    C9-    C8-    H4
    11     15     10     39      1   180.00   4.60240   2 ;     C7-   C11-    C6-    H3
    12     14     13     41      1   180.00   4.60240   2 ;     C8-   C10-    C9-    H5
    13     15     14      8      1   180.00   4.60240   2 ;     C9-   C11-   C10-    N4
    17     19     18     43      1   180.00   4.60240   2 ;    C12-   C14-   C13-    H7
    18     29     17     16      1   180.00   4.60240   2 ;    C13-    N7-   C12-    N5
    21     18     19     20      1   180.00   4.60240   2 ;    C15-   C13-   C14-    N6
    22     17     16     20      1   180.00   4.60240   2 ;    C16-   C12-    N5-    N6
    22     24     23     44      1   180.00   4.60240   2 ;    C16-   C18-   C17-    H8
    22     26     27     47      1   180.00   4.60240   2 ;    C16-   C20-   C21-   H11
    23     25     24     45      1   180.00   4.60240   2 ;    C17-   C19-   C18-    H9
    23     27     22     16      1   180.00   4.60240   2 ;    C17-   C21-   C16-    N5
    24     26     25     28      1   180.00   4.60240   2 ;    C18-   C20-   C19-   C22
    25     27     26     46      1   180.00   4.60240   2 ;    C19-   C21-   C20-   H10
    29     32     30     31      1   180.00  43.93200   2 ;     N7-    N8-   C23-    O1
    30     11     32     52      1   180.00   4.60240   2 ;    C23-    C7-    N8-   H16
    30     17     29     51      1   180.00   4.60240   2 ;    C23-   C12-    N7-   H15
    38      8      9      7      1   180.00   4.60240   2 ;     H2-    N4-    C5-    N3

; Include Position restraint file
#ifdef POSRES
#include "posre_MOL.itp"
#endif
