
[ moleculetype ]
;name            nrexcl
 MOL              3

[ atoms ]
;   nr  type  resi  res  atom  cgnr     charge      mass       ; qtot   bond_type
     1   CC     1   MOL    C1    1     0.319965     12.01000 ; qtot 0.320
     2    O     1   MOL    O1    2    -0.613793     16.00000 ; qtot -0.294
     3   CD     1   MOL    C2    3    -0.477297     12.01000 ; qtot -0.771
     4   CD     1   MOL    C3    4     0.197437     12.01000 ; qtot -0.574
     5   CC     1   MOL    C4    5    -0.482639     12.01000 ; qtot -1.056
     6    C     1   MOL    C5    6     0.838937     12.01000 ; qtot -0.217
     7   C3     1   MOL    C6    7    -0.560036     12.01000 ; qtot -0.777
     8    C     1   MOL    C7    8     0.673345     12.01000 ; qtot -0.104
     9    N     1   MOL    N1    9    -0.605253     14.01000 ; qtot -0.709
    10   C3     1   MOL    C8   10     0.169957     12.01000 ; qtot -0.539
    11   C3     1   MOL    C9   11    -0.280234     12.01000 ; qtot -0.820
    12   CA     1   MOL   C10   12     0.292490     12.01000 ; qtot -0.527
    13   CA     1   MOL   C11   13    -0.568772     12.01000 ; qtot -1.096
    14   CA     1   MOL   C12   14    -0.130660     12.01000 ; qtot -1.227
    15   CA     1   MOL   C13   15    -0.155836     12.01000 ; qtot -1.382
    16   C3     1   MOL   C14   16     0.425953     12.01000 ; qtot -0.956
    17   C3     1   MOL   C15   17    -0.143307     12.01000 ; qtot -1.100
    18   C3     1   MOL   C16   18    -0.052303     12.01000 ; qtot -1.152
    19   C3     1   MOL   C17   19    -0.052303     12.01000 ; qtot -1.204
    20   C3     1   MOL   C18   20    -0.143307     12.01000 ; qtot -1.348
    21   CA     1   MOL   C19   21    -0.410178     12.01000 ; qtot -1.758
    22   CA     1   MOL   C20   22     0.493667     12.01000 ; qtot -1.264
    23   NA     1   MOL    N2   23    -0.050757     14.01000 ; qtot -1.315
    24   C3     1   MOL   C21   24    -0.436631     12.01000 ; qtot -1.752
    25   C3     1   MOL   C22   25     0.855260     12.01000 ; qtot -0.896
    26   C3     1   MOL   C23   26    -0.457702     12.01000 ; qtot -1.354
    27   C3     1   MOL   C24   27    -0.457702     12.01000 ; qtot -1.812
    28    O     1   MOL    O2   28    -0.597167     16.00000 ; qtot -2.409
    29   C3     1   MOL   C25   29    -0.406831     12.01000 ; qtot -2.816
    30   H4     1   MOL    H1   30     0.235324      1.00800 ; qtot -2.580
    31   HC     1   MOL    H2   31     0.106704      1.00800 ; qtot -2.474
    32   HC     1   MOL    H3   32     0.106704      1.00800 ; qtot -2.367
    33   HN     1   MOL    H4   33     0.347335      1.00800 ; qtot -2.020
    34   H1     1   MOL    H5   34     0.035284      1.00800 ; qtot -1.984
    35   H1     1   MOL    H6   35     0.035284      1.00800 ; qtot -1.949
    36   HC     1   MOL    H7   36     0.111482      1.00800 ; qtot -1.838
    37   HC     1   MOL    H8   37     0.111482      1.00800 ; qtot -1.726
    38   HA     1   MOL    H9   38     0.216923      1.00800 ; qtot -1.509
    39   HC     1   MOL   H10   39    -0.030691      1.00800 ; qtot -1.540
    40   HC     1   MOL   H11   40     0.039527      1.00800 ; qtot -1.500
    41   HC     1   MOL   H12   41     0.039527      1.00800 ; qtot -1.461
    42   HC     1   MOL   H13   42     0.024574      1.00800 ; qtot -1.436
    43   HC     1   MOL   H14   43     0.024574      1.00800 ; qtot -1.412
    44   HC     1   MOL   H15   44     0.024574      1.00800 ; qtot -1.387
    45   HC     1   MOL   H16   45     0.024574      1.00800 ; qtot -1.363
    46   HC     1   MOL   H17   46     0.039527      1.00800 ; qtot -1.323
    47   HC     1   MOL   H18   47     0.039527      1.00800 ; qtot -1.283
    48   HA     1   MOL   H19   48     0.199114      1.00800 ; qtot -1.084
    49   HC     1   MOL   H20   49     0.094507      1.00800 ; qtot -0.990
    50   HC     1   MOL   H21   50     0.094507      1.00800 ; qtot -0.895
    51   HC     1   MOL   H22   51     0.089891      1.00800 ; qtot -0.805
    52   HC     1   MOL   H23   52     0.089891      1.00800 ; qtot -0.716
    53   HC     1   MOL   H24   53     0.089891      1.00800 ; qtot -0.626
    54   HC     1   MOL   H25   54     0.089891      1.00800 ; qtot -0.536
    55   HC     1   MOL   H26   55     0.089891      1.00800 ; qtot -0.446
    56   HC     1   MOL   H27   56     0.089891      1.00800 ; qtot -0.356
    57   HC     1   MOL   H28   57     0.118662      1.00800 ; qtot -0.237
    58   HC     1   MOL   H29   58     0.118662      1.00800 ; qtot -0.119
    59   HC     1   MOL   H30   59     0.118662      1.00800 ; qtot 0.000

[ bonds ]
;   ai     aj funct   r             k
     1      3   1    1.3729e-01    4.1915e+05 ;     C1 - C2    
     1      5   1    1.4278e-01    3.5129e+05 ;     C1 - C4    
     1     29   1    1.5015e-01    2.8016e+05 ;     C1 - C25   
     2      8   1    1.2183e-01    5.3363e+05 ;     O1 - C7    
     3     23   1    1.3802e-01    3.5631e+05 ;     C2 - N2    
     3     30   1    1.0817e-01    2.9455e+05 ;     C2 - H1    
     4      5   1    1.3729e-01    4.1915e+05 ;     C3 - C4    
     4     23   1    1.3802e-01    3.5631e+05 ;     C3 - N2    
     4     24   1    1.5015e-01    2.8016e+05 ;     C3 - C21   
     5      6   1    1.4676e-01    3.1045e+05 ;     C4 - C5    
     6      7   1    1.5241e-01    2.6192e+05 ;     C5 - C6    
     6     28   1    1.2183e-01    5.3363e+05 ;     C5 - O2    
     7     25   1    1.5375e-01    2.5179e+05 ;     C6 - C22   
     7     31   1    1.0969e-01    2.7665e+05 ;     C6 - H2    
     7     32   1    1.0969e-01    2.7665e+05 ;     C6 - H3    
     8      9   1    1.3789e-01    3.5782e+05 ;     C7 - N1    
     8     14   1    1.4906e-01    2.8945e+05 ;     C7 - C12   
     9     10   1    1.4619e-01    2.7506e+05 ;     N1 - C8    
     9     33   1    1.0129e-01    3.3740e+05 ;     N1 - H4    
    10     11   1    1.5375e-01    2.5179e+05 ;     C8 - C9    
    10     34   1    1.0969e-01    2.7665e+05 ;     C8 - H5    
    10     35   1    1.0969e-01    2.7665e+05 ;     C8 - H6    
    11     12   1    1.5156e-01    2.6861e+05 ;     C9 - C10   
    11     36   1    1.0969e-01    2.7665e+05 ;     C9 - H7    
    11     37   1    1.0969e-01    2.7665e+05 ;     C9 - H8    
    12     13   1    1.3984e-01    3.8585e+05 ;    C10 - C11   
    12     14   1    1.3984e-01    3.8585e+05 ;    C10 - C12   
    13     22   1    1.3984e-01    3.8585e+05 ;    C11 - C20   
    13     38   1    1.0860e-01    2.8937e+05 ;    C11 - H9    
    14     15   1    1.3984e-01    3.8585e+05 ;    C12 - C13   
    15     16   1    1.5156e-01    2.6861e+05 ;    C13 - C14   
    15     21   1    1.3984e-01    3.8585e+05 ;    C13 - C19   
    16     17   1    1.5375e-01    2.5179e+05 ;    C14 - C15   
    16     20   1    1.5375e-01    2.5179e+05 ;    C14 - C18   
    16     39   1    1.0969e-01    2.7665e+05 ;    C14 - H10   
    17     18   1    1.5375e-01    2.5179e+05 ;    C15 - C16   
    17     40   1    1.0969e-01    2.7665e+05 ;    C15 - H11   
    17     41   1    1.0969e-01    2.7665e+05 ;    C15 - H12   
    18     19   1    1.5375e-01    2.5179e+05 ;    C16 - C17   
    18     42   1    1.0969e-01    2.7665e+05 ;    C16 - H13   
    18     43   1    1.0969e-01    2.7665e+05 ;    C16 - H14   
    19     20   1    1.5375e-01    2.5179e+05 ;    C17 - C18   
    19     44   1    1.0969e-01    2.7665e+05 ;    C17 - H15   
    19     45   1    1.0969e-01    2.7665e+05 ;    C17 - H16   
    20     46   1    1.0969e-01    2.7665e+05 ;    C18 - H17   
    20     47   1    1.0969e-01    2.7665e+05 ;    C18 - H18   
    21     22   1    1.3984e-01    3.8585e+05 ;    C19 - C20   
    21     48   1    1.0860e-01    2.8937e+05 ;    C19 - H19   
    22     23   1    1.3840e-01    3.5187e+05 ;    C20 - N2    
    24     25   1    1.5375e-01    2.5179e+05 ;    C21 - C22   
    24     49   1    1.0969e-01    2.7665e+05 ;    C21 - H20   
    24     50   1    1.0969e-01    2.7665e+05 ;    C21 - H21   
    25     26   1    1.5375e-01    2.5179e+05 ;    C22 - C23   
    25     27   1    1.5375e-01    2.5179e+05 ;    C22 - C24   
    26     51   1    1.0969e-01    2.7665e+05 ;    C23 - H22   
    26     52   1    1.0969e-01    2.7665e+05 ;    C23 - H23   
    26     53   1    1.0969e-01    2.7665e+05 ;    C23 - H24   
    27     54   1    1.0969e-01    2.7665e+05 ;    C24 - H25   
    27     55   1    1.0969e-01    2.7665e+05 ;    C24 - H26   
    27     56   1    1.0969e-01    2.7665e+05 ;    C24 - H27   
    29     57   1    1.0969e-01    2.7665e+05 ;    C25 - H28   
    29     58   1    1.0969e-01    2.7665e+05 ;    C25 - H29   
    29     59   1    1.0969e-01    2.7665e+05 ;    C25 - H30   

[ pairs ]
;   ai     aj    funct
     1      7      1 ;     C1 - C6    
     1     22      1 ;     C1 - C20   
     1     24      1 ;     C1 - C21   
     1     28      1 ;     C1 - O2    
     2     10      1 ;     O1 - C8    
     2     12      1 ;     O1 - C10   
     2     15      1 ;     O1 - C13   
     2     33      1 ;     O1 - H4    
     3      6      1 ;     C2 - C5    
     3     13      1 ;     C2 - C11   
     3     21      1 ;     C2 - C19   
     3     24      1 ;     C2 - C21   
     3     57      1 ;     C2 - H28   
     3     58      1 ;     C2 - H29   
     3     59      1 ;     C2 - H30   
     4      7      1 ;     C3 - C6    
     4     13      1 ;     C3 - C11   
     4     21      1 ;     C3 - C19   
     4     26      1 ;     C3 - C23   
     4     27      1 ;     C3 - C24   
     4     28      1 ;     C3 - O2    
     4     30      1 ;     C3 - H1    
     5     22      1 ;     C4 - C20   
     5     25      1 ;     C4 - C22   
     5     30      1 ;     C4 - H1    
     5     31      1 ;     C4 - H2    
     5     32      1 ;     C4 - H3    
     5     49      1 ;     C4 - H20   
     5     50      1 ;     C4 - H21   
     5     57      1 ;     C4 - H28   
     5     58      1 ;     C4 - H29   
     5     59      1 ;     C4 - H30   
     6     23      1 ;     C5 - N2    
     6     24      1 ;     C5 - C21   
     6     26      1 ;     C5 - C23   
     6     27      1 ;     C5 - C24   
     7     49      1 ;     C6 - H20   
     7     50      1 ;     C6 - H21   
     7     51      1 ;     C6 - H22   
     7     52      1 ;     C6 - H23   
     7     53      1 ;     C6 - H24   
     7     54      1 ;     C6 - H25   
     7     55      1 ;     C6 - H26   
     7     56      1 ;     C6 - H27   
     8     11      1 ;     C7 - C9    
     8     13      1 ;     C7 - C11   
     8     16      1 ;     C7 - C14   
     8     21      1 ;     C7 - C19   
     8     34      1 ;     C7 - H5    
     8     35      1 ;     C7 - H6    
     9     12      1 ;     N1 - C10   
     9     15      1 ;     N1 - C13   
     9     36      1 ;     N1 - H7    
     9     37      1 ;     N1 - H8    
    10     13      1 ;     C8 - C11   
    10     14      1 ;     C8 - C12   
    11     15      1 ;     C9 - C13   
    11     22      1 ;     C9 - C20   
    11     33      1 ;     C9 - H4    
    11     38      1 ;     C9 - H9    
    12     16      1 ;    C10 - C14   
    12     21      1 ;    C10 - C19   
    12     23      1 ;    C10 - N2    
    12     34      1 ;    C10 - H5    
    12     35      1 ;    C10 - H6    
    13     15      1 ;    C11 - C13   
    13     36      1 ;    C11 - H7    
    13     37      1 ;    C11 - H8    
    13     48      1 ;    C11 - H19   
    14     17      1 ;    C12 - C15   
    14     20      1 ;    C12 - C18   
    14     22      1 ;    C12 - C20   
    14     33      1 ;    C12 - H4    
    14     36      1 ;    C12 - H7    
    14     37      1 ;    C12 - H8    
    14     38      1 ;    C12 - H9    
    14     39      1 ;    C12 - H10   
    14     48      1 ;    C12 - H19   
    15     18      1 ;    C13 - C16   
    15     19      1 ;    C13 - C17   
    15     23      1 ;    C13 - N2    
    15     40      1 ;    C13 - H11   
    15     41      1 ;    C13 - H12   
    15     46      1 ;    C13 - H17   
    15     47      1 ;    C13 - H18   
    16     22      1 ;    C14 - C20   
    16     42      1 ;    C14 - H13   
    16     43      1 ;    C14 - H14   
    16     44      1 ;    C14 - H15   
    16     45      1 ;    C14 - H16   
    16     48      1 ;    C14 - H19   
    17     21      1 ;    C15 - C19   
    17     44      1 ;    C15 - H15   
    17     45      1 ;    C15 - H16   
    17     46      1 ;    C15 - H17   
    17     47      1 ;    C15 - H18   
    18     39      1 ;    C16 - H10   
    18     46      1 ;    C16 - H17   
    18     47      1 ;    C16 - H18   
    19     39      1 ;    C17 - H10   
    19     40      1 ;    C17 - H11   
    19     41      1 ;    C17 - H12   
    20     21      1 ;    C18 - C19   
    20     40      1 ;    C18 - H11   
    20     41      1 ;    C18 - H12   
    20     42      1 ;    C18 - H13   
    20     43      1 ;    C18 - H14   
    21     38      1 ;    C19 - H9    
    21     39      1 ;    C19 - H10   
    22     24      1 ;    C20 - C21   
    22     30      1 ;    C20 - H1    
    23     25      1 ;     N2 - C22   
    23     38      1 ;     N2 - H9    
    23     48      1 ;     N2 - H19   
    23     49      1 ;     N2 - H20   
    23     50      1 ;     N2 - H21   
    24     31      1 ;    C21 - H2    
    24     32      1 ;    C21 - H3    
    24     51      1 ;    C21 - H22   
    24     52      1 ;    C21 - H23   
    24     53      1 ;    C21 - H24   
    24     54      1 ;    C21 - H25   
    24     55      1 ;    C21 - H26   
    24     56      1 ;    C21 - H27   
    25     28      1 ;    C22 - O2    
    26     31      1 ;    C23 - H2    
    26     32      1 ;    C23 - H3    
    26     49      1 ;    C23 - H20   
    26     50      1 ;    C23 - H21   
    26     54      1 ;    C23 - H25   
    26     55      1 ;    C23 - H26   
    26     56      1 ;    C23 - H27   
    27     31      1 ;    C24 - H2    
    27     32      1 ;    C24 - H3    
    27     49      1 ;    C24 - H20   
    27     50      1 ;    C24 - H21   
    27     51      1 ;    C24 - H22   
    27     52      1 ;    C24 - H23   
    27     53      1 ;    C24 - H24   
    28     31      1 ;     O2 - H2    
    28     32      1 ;     O2 - H3    
    29      4      1 ;    C25 - C3    
    29      6      1 ;    C25 - C5    
    29     23      1 ;    C25 - N2    
    29     30      1 ;    C25 - H1    
    33     34      1 ;     H4 - H5    
    33     35      1 ;     H4 - H6    
    34     36      1 ;     H5 - H7    
    34     37      1 ;     H5 - H8    
    35     36      1 ;     H6 - H7    
    35     37      1 ;     H6 - H8    
    39     40      1 ;    H10 - H11   
    39     41      1 ;    H10 - H12   
    39     46      1 ;    H10 - H17   
    39     47      1 ;    H10 - H18   
    40     42      1 ;    H11 - H13   
    40     43      1 ;    H11 - H14   
    41     42      1 ;    H12 - H13   
    41     43      1 ;    H12 - H14   
    42     44      1 ;    H13 - H15   
    42     45      1 ;    H13 - H16   
    43     44      1 ;    H14 - H15   
    43     45      1 ;    H14 - H16   
    44     46      1 ;    H15 - H17   
    44     47      1 ;    H15 - H18   
    45     46      1 ;    H16 - H17   
    45     47      1 ;    H16 - H18   

[ angles ]
;   ai     aj     ak    funct   theta         cth
     1      3     23      1    1.0699e+02    6.1421e+02 ;     C1 - C2     - N2    
     1      3     30      1    1.2848e+02    3.9581e+02 ;     C1 - C2     - H1    
     1      5      4      1    1.1419e+02    5.7070e+02 ;     C1 - C4     - C3    
     1      5      6      1    1.2269e+02    5.3220e+02 ;     C1 - C4     - C5    
     1     29     57      1    1.1049e+02    3.9497e+02 ;     C1 - C25    - H28   
     1     29     58      1    1.1049e+02    3.9497e+02 ;     C1 - C25    - H29   
     1     29     59      1    1.1049e+02    3.9497e+02 ;     C1 - C25    - H30   
     2      8      9      1    1.2305e+02    6.2091e+02 ;     O1 - C7     - N1    
     2      8     14      1    1.2260e+02    5.7488e+02 ;     O1 - C7     - C12   
     3      1      5      1    1.1419e+02    5.7070e+02 ;     C2 - C1     - C4    
     3      1     29      1    1.1945e+02    5.4141e+02 ;     C2 - C1     - C25   
     3     23      4      1    1.0990e+02    5.7321e+02 ;     C2 - N2     - C3    
     3     23     22      1    1.1315e+02    5.6400e+02 ;     C2 - N2     - C20   
     4      5      6      1    1.2135e+02    5.4476e+02 ;     C3 - C4     - C5    
     4     23     22      1    1.1315e+02    5.6400e+02 ;     C3 - N2     - C20   
     4     24     25      1    1.1193e+02    5.3137e+02 ;     C3 - C21    - C22   
     4     24     49      1    1.1049e+02    3.9497e+02 ;     C3 - C21    - H20   
     4     24     50      1    1.1049e+02    3.9497e+02 ;     C3 - C21    - H21   
     5      1     29      1    1.1597e+02    5.4057e+02 ;     C4 - C1     - C25   
     5      4     23      1    1.0699e+02    6.1421e+02 ;     C4 - C3     - N2    
     5      4     24      1    1.1945e+02    5.4141e+02 ;     C4 - C3     - C21   
     5      6      7      1    1.1729e+02    5.2718e+02 ;     C4 - C5     - C6    
     5      6     28      1    1.2393e+02    5.7823e+02 ;     C4 - C5     - O2    
     6      7     25      1    1.1104e+02    5.2969e+02 ;     C5 - C6     - C22   
     6      7     31      1    1.0877e+02    3.9246e+02 ;     C5 - C6     - H2    
     6      7     32      1    1.0877e+02    3.9246e+02 ;     C5 - C6     - H3    
     7      6     28      1    1.2320e+02    5.6400e+02 ;     C6 - C5     - O2    
     7     25     24      1    1.1151e+02    5.2635e+02 ;     C6 - C22    - C21   
     7     25     26      1    1.1151e+02    5.2635e+02 ;     C6 - C22    - C23   
     7     25     27      1    1.1151e+02    5.2635e+02 ;     C6 - C22    - C24   
     8      9     10      1    1.2069e+02    5.3053e+02 ;     C7 - N1     - C8    
     8      9     33      1    1.1755e+02    4.0417e+02 ;     C7 - N1     - H4    
     8     14     12      1    1.2033e+02    5.3806e+02 ;     C7 - C12    - C10   
     8     14     15      1    1.2033e+02    5.3806e+02 ;     C7 - C12    - C13   
     9      8     14      1    1.1525e+02    5.6651e+02 ;     N1 - C7     - C12   
     9     10     11      1    1.1161e+02    5.5145e+02 ;     N1 - C8     - C9    
     9     10     34      1    1.0888e+02    4.1673e+02 ;     N1 - C8     - H5    
     9     10     35      1    1.0888e+02    4.1673e+02 ;     N1 - C8     - H6    
    10      9     33      1    1.1768e+02    3.8325e+02 ;     C8 - N1     - H4    
    10     11     12      1    1.1207e+02    5.2802e+02 ;     C8 - C9     - C10   
    10     11     36      1    1.0980e+02    3.8744e+02 ;     C8 - C9     - H7    
    10     11     37      1    1.0980e+02    3.8744e+02 ;     C8 - C9     - H8    
    11     10     34      1    1.0956e+02    3.8828e+02 ;     C9 - C8     - H5    
    11     10     35      1    1.0956e+02    3.8828e+02 ;     C9 - C8     - H6    
    11     12     13      1    1.2077e+02    5.3137e+02 ;     C9 - C10    - C11   
    11     12     14      1    1.2077e+02    5.3137e+02 ;     C9 - C10    - C12   
    12     11     36      1    1.1047e+02    3.9162e+02 ;    C10 - C9     - H7    
    12     11     37      1    1.1047e+02    3.9162e+02 ;    C10 - C9     - H8    
    12     13     22      1    1.2002e+02    5.5731e+02 ;    C10 - C11    - C20   
    12     13     38      1    1.1988e+02    4.0334e+02 ;    C10 - C11    - H9    
    12     14     15      1    1.2002e+02    5.5731e+02 ;    C10 - C12    - C13   
    13     12     14      1    1.2002e+02    5.5731e+02 ;    C11 - C10    - C12   
    13     22     21      1    1.2002e+02    5.5731e+02 ;    C11 - C20    - C19   
    13     22     23      1    1.1834e+02    5.7823e+02 ;    C11 - C20    - N2    
    14     15     16      1    1.2077e+02    5.3137e+02 ;    C12 - C13    - C14   
    14     15     21      1    1.2002e+02    5.5731e+02 ;    C12 - C13    - C19   
    15     16     17      1    1.1207e+02    5.2802e+02 ;    C13 - C14    - C15   
    15     16     20      1    1.1207e+02    5.2802e+02 ;    C13 - C14    - C18   
    15     16     39      1    1.1047e+02    3.9162e+02 ;    C13 - C14    - H10   
    15     21     22      1    1.2002e+02    5.5731e+02 ;    C13 - C19    - C20   
    15     21     48      1    1.1988e+02    4.0334e+02 ;    C13 - C19    - H19   
    16     15     21      1    1.2077e+02    5.3137e+02 ;    C14 - C13    - C19   
    16     17     18      1    1.1151e+02    5.2635e+02 ;    C14 - C15    - C16   
    16     17     40      1    1.0980e+02    3.8744e+02 ;    C14 - C15    - H11   
    16     17     41      1    1.0980e+02    3.8744e+02 ;    C14 - C15    - H12   
    16     20     19      1    1.1151e+02    5.2635e+02 ;    C14 - C18    - C17   
    16     20     46      1    1.0980e+02    3.8744e+02 ;    C14 - C18    - H17   
    16     20     47      1    1.0980e+02    3.8744e+02 ;    C14 - C18    - H18   
    17     16     20      1    1.1151e+02    5.2635e+02 ;    C15 - C14    - C18   
    17     16     39      1    1.0980e+02    3.8744e+02 ;    C15 - C14    - H10   
    17     18     19      1    1.1151e+02    5.2635e+02 ;    C15 - C16    - C17   
    17     18     42      1    1.0980e+02    3.8744e+02 ;    C15 - C16    - H13   
    17     18     43      1    1.0980e+02    3.8744e+02 ;    C15 - C16    - H14   
    18     17     40      1    1.0980e+02    3.8744e+02 ;    C16 - C15    - H11   
    18     17     41      1    1.0980e+02    3.8744e+02 ;    C16 - C15    - H12   
    18     19     20      1    1.1151e+02    5.2635e+02 ;    C16 - C17    - C18   
    18     19     44      1    1.0980e+02    3.8744e+02 ;    C16 - C17    - H15   
    18     19     45      1    1.0980e+02    3.8744e+02 ;    C16 - C17    - H16   
    19     18     42      1    1.0980e+02    3.8744e+02 ;    C17 - C16    - H13   
    19     18     43      1    1.0980e+02    3.8744e+02 ;    C17 - C16    - H14   
    19     20     46      1    1.0980e+02    3.8744e+02 ;    C17 - C18    - H17   
    19     20     47      1    1.0980e+02    3.8744e+02 ;    C17 - C18    - H18   
    20     16     39      1    1.0980e+02    3.8744e+02 ;    C18 - C14    - H10   
    20     19     44      1    1.0980e+02    3.8744e+02 ;    C18 - C17    - H15   
    20     19     45      1    1.0980e+02    3.8744e+02 ;    C18 - C17    - H16   
    21     22     23      1    1.1834e+02    5.7823e+02 ;    C19 - C20    - N2    
    22     13     38      1    1.1988e+02    4.0334e+02 ;    C20 - C11    - H9    
    22     21     48      1    1.1988e+02    4.0334e+02 ;    C20 - C19    - H19   
    23      3     30      1    1.2053e+02    4.1673e+02 ;     N2 - C2     - H1    
    23      4     24      1    1.2273e+02    5.4643e+02 ;     N2 - C3     - C21   
    24     25     26      1    1.1151e+02    5.2635e+02 ;    C21 - C22    - C23   
    24     25     27      1    1.1151e+02    5.2635e+02 ;    C21 - C22    - C24   
    25      7     31      1    1.0980e+02    3.8744e+02 ;    C22 - C6     - H2    
    25      7     32      1    1.0980e+02    3.8744e+02 ;    C22 - C6     - H3    
    25     24     49      1    1.0980e+02    3.8744e+02 ;    C22 - C21    - H20   
    25     24     50      1    1.0980e+02    3.8744e+02 ;    C22 - C21    - H21   
    25     26     51      1    1.0980e+02    3.8744e+02 ;    C22 - C23    - H22   
    25     26     52      1    1.0980e+02    3.8744e+02 ;    C22 - C23    - H23   
    25     26     53      1    1.0980e+02    3.8744e+02 ;    C22 - C23    - H24   
    25     27     54      1    1.0980e+02    3.8744e+02 ;    C22 - C24    - H25   
    25     27     55      1    1.0980e+02    3.8744e+02 ;    C22 - C24    - H26   
    25     27     56      1    1.0980e+02    3.8744e+02 ;    C22 - C24    - H27   
    26     25     27      1    1.1151e+02    5.2635e+02 ;    C23 - C22    - C24   
    31      7     32      1    1.0758e+02    3.2970e+02 ;     H2 - C6     - H3    
    34     10     35      1    1.0846e+02    3.2803e+02 ;     H5 - C8     - H6    
    36     11     37      1    1.0758e+02    3.2970e+02 ;     H7 - C9     - H8    
    40     17     41      1    1.0758e+02    3.2970e+02 ;    H11 - C15    - H12   
    42     18     43      1    1.0758e+02    3.2970e+02 ;    H13 - C16    - H14   
    44     19     45      1    1.0758e+02    3.2970e+02 ;    H15 - C17    - H16   
    46     20     47      1    1.0758e+02    3.2970e+02 ;    H17 - C18    - H18   
    49     24     50      1    1.0758e+02    3.2970e+02 ;    H20 - C21    - H21   
    51     26     52      1    1.0758e+02    3.2970e+02 ;    H22 - C23    - H23   
    51     26     53      1    1.0758e+02    3.2970e+02 ;    H22 - C23    - H24   
    52     26     53      1    1.0758e+02    3.2970e+02 ;    H23 - C23    - H24   
    54     27     55      1    1.0758e+02    3.2970e+02 ;    H25 - C24    - H26   
    54     27     56      1    1.0758e+02    3.2970e+02 ;    H25 - C24    - H27   
    55     27     56      1    1.0758e+02    3.2970e+02 ;    H26 - C24    - H27   
    57     29     58      1    1.0758e+02    3.2970e+02 ;    H28 - C25    - H29   
    57     29     59      1    1.0758e+02    3.2970e+02 ;    H28 - C25    - H30   
    58     29     59      1    1.0758e+02    3.2970e+02 ;    H29 - C25    - H30   

[ dihedrals ] ; propers
; treated as RBs in GROMACS to use combine multiple AMBER torsions per quartet
;    I      j      k      l   func    C0         C1         C2         C3         C4         C5
     1      3     23      4      3   14.22560    0.00000  -14.22560    0.00000    0.00000    0.00000 ;     C1-    C2-    N2-    C3
     1      3     23     22      3   14.22560    0.00000  -14.22560    0.00000    0.00000    0.00000 ;     C1-    C2-    N2-   C20
     1      5      4     23      3   33.47200    0.00000  -33.47200    0.00000    0.00000    0.00000 ;     C1-    C4-    C3-    N2
     1      5      4     24      3   33.47200    0.00000  -33.47200    0.00000    0.00000    0.00000 ;     C1-    C4-    C3-   C21
     1      5      6      7      3   24.05800    0.00000  -24.05800    0.00000    0.00000    0.00000 ;     C1-    C4-    C5-    C6
     1      5      6     28      3   24.05800    0.00000  -24.05800    0.00000    0.00000    0.00000 ;     C1-    C4-    C5-    O2
     2      8      9     10      3   20.92000    0.00000  -20.92000    0.00000    0.00000    0.00000 ;     O1-    C7-    N1-    C8
     2      8      9     33      3   29.28800   -8.36800  -20.92000    0.00000    0.00000    0.00000 ;     O1-    C7-    N1-    H4
     2      8     14     12      3    8.36800    0.00000   -8.36800    0.00000    0.00000    0.00000 ;     O1-    C7-   C12-   C10
     2      8     14     15      3    8.36800    0.00000   -8.36800    0.00000    0.00000    0.00000 ;     O1-    C7-   C12-   C13
     3      1      5      4      3   33.47200    0.00000  -33.47200    0.00000    0.00000    0.00000 ;     C2-    C1-    C4-    C3
     3      1      5      6      3   33.47200    0.00000  -33.47200    0.00000    0.00000    0.00000 ;     C2-    C1-    C4-    C5
     3      1     29     57      3    0.00000    0.00000    0.00000    0.00000    0.00000    0.00000 ;     C2-    C1-   C25-   H28
     3      1     29     58      3    0.00000    0.00000    0.00000    0.00000    0.00000    0.00000 ;     C2-    C1-   C25-   H29
     3      1     29     59      3    0.00000    0.00000    0.00000    0.00000    0.00000    0.00000 ;     C2-    C1-   C25-   H30
     3     23      4      5      3   14.22560    0.00000  -14.22560    0.00000    0.00000    0.00000 ;     C2-    N2-    C3-    C4
     3     23      4     24      3   14.22560    0.00000  -14.22560    0.00000    0.00000    0.00000 ;     C2-    N2-    C3-   C21
     3     23     22     13      3    2.51040    0.00000   -2.51040    0.00000    0.00000    0.00000 ;     C2-    N2-   C20-   C11
     3     23     22     21      3    2.51040    0.00000   -2.51040    0.00000    0.00000    0.00000 ;     C2-    N2-   C20-   C19
     4      5      6      7      3   24.05800    0.00000  -24.05800    0.00000    0.00000    0.00000 ;     C3-    C4-    C5-    C6
     4      5      6     28      3   24.05800    0.00000  -24.05800    0.00000    0.00000    0.00000 ;     C3-    C4-    C5-    O2
     4     23      3     30      3   14.22560    0.00000  -14.22560    0.00000    0.00000    0.00000 ;     C3-    N2-    C2-    H1
     4     23     22     13      3    2.51040    0.00000   -2.51040    0.00000    0.00000    0.00000 ;     C3-    N2-   C20-   C11
     4     23     22     21      3    2.51040    0.00000   -2.51040    0.00000    0.00000    0.00000 ;     C3-    N2-   C20-   C19
     4     24     25      7      3    0.65084    1.95253    0.00000   -2.60338    0.00000    0.00000 ;     C3-   C21-   C22-    C6
     4     24     25     26      3    0.65084    1.95253    0.00000   -2.60338    0.00000    0.00000 ;     C3-   C21-   C22-   C23
     4     24     25     27      3    0.65084    1.95253    0.00000   -2.60338    0.00000    0.00000 ;     C3-   C21-   C22-   C24
     5      1      3     23      3   33.47200    0.00000  -33.47200    0.00000    0.00000    0.00000 ;     C4-    C1-    C2-    N2
     5      1      3     30      3   33.47200    0.00000  -33.47200    0.00000    0.00000    0.00000 ;     C4-    C1-    C2-    H1
     5      1     29     57      3    0.00000    0.00000    0.00000    0.00000    0.00000    0.00000 ;     C4-    C1-   C25-   H28
     5      1     29     58      3    0.00000    0.00000    0.00000    0.00000    0.00000    0.00000 ;     C4-    C1-   C25-   H29
     5      1     29     59      3    0.00000    0.00000    0.00000    0.00000    0.00000    0.00000 ;     C4-    C1-   C25-   H30
     5      4     23     22      3   14.22560    0.00000  -14.22560    0.00000    0.00000    0.00000 ;     C4-    C3-    N2-   C20
     5      4     24     25      3    0.00000    0.00000    0.00000    0.00000    0.00000    0.00000 ;     C4-    C3-   C21-   C22
     5      4     24     49      3    0.00000    0.00000    0.00000    0.00000    0.00000    0.00000 ;     C4-    C3-   C21-   H20
     5      4     24     50      3    0.00000    0.00000    0.00000    0.00000    0.00000    0.00000 ;     C4-    C3-   C21-   H21
     5      6      7     25      3    0.00000    0.00000    0.00000    0.00000    0.00000    0.00000 ;     C4-    C5-    C6-   C22
     5      6      7     31      3    0.00000    0.00000    0.00000    0.00000    0.00000    0.00000 ;     C4-    C5-    C6-    H2
     5      6      7     32      3    0.00000    0.00000    0.00000    0.00000    0.00000    0.00000 ;     C4-    C5-    C6-    H3
     6      5      4     23      3   33.47200    0.00000  -33.47200    0.00000    0.00000    0.00000 ;     C5-    C4-    C3-    N2
     6      5      4     24      3   33.47200    0.00000  -33.47200    0.00000    0.00000    0.00000 ;     C5-    C4-    C3-   C21
     6      7     25     24      3    0.65084    1.95253    0.00000   -2.60338    0.00000    0.00000 ;     C5-    C6-   C22-   C21
     6      7     25     26      3    0.65084    1.95253    0.00000   -2.60338    0.00000    0.00000 ;     C5-    C6-   C22-   C23
     6      7     25     27      3    0.65084    1.95253    0.00000   -2.60338    0.00000    0.00000 ;     C5-    C6-   C22-   C24
     7     25     24     49      3    0.66944    2.00832    0.00000   -2.67776    0.00000    0.00000 ;     C6-   C22-   C21-   H20
     7     25     24     50      3    0.66944    2.00832    0.00000   -2.67776    0.00000    0.00000 ;     C6-   C22-   C21-   H21
     7     25     26     51      3    0.66944    2.00832    0.00000   -2.67776    0.00000    0.00000 ;     C6-   C22-   C23-   H22
     7     25     26     52      3    0.66944    2.00832    0.00000   -2.67776    0.00000    0.00000 ;     C6-   C22-   C23-   H23
     7     25     26     53      3    0.66944    2.00832    0.00000   -2.67776    0.00000    0.00000 ;     C6-   C22-   C23-   H24
     7     25     27     54      3    0.66944    2.00832    0.00000   -2.67776    0.00000    0.00000 ;     C6-   C22-   C24-   H25
     7     25     27     55      3    0.66944    2.00832    0.00000   -2.67776    0.00000    0.00000 ;     C6-   C22-   C24-   H26
     7     25     27     56      3    0.66944    2.00832    0.00000   -2.67776    0.00000    0.00000 ;     C6-   C22-   C24-   H27
     8      9     10     11      3    2.84512   -4.10032   16.73600    2.51040  -16.73600    0.00000 ;     C7-    N1-    C8-    C9
     8      9     10     34      3    0.00000    0.00000    0.00000    0.00000    0.00000    0.00000 ;     C7-    N1-    C8-    H5
     8      9     10     35      3    0.00000    0.00000    0.00000    0.00000    0.00000    0.00000 ;     C7-    N1-    C8-    H6
     8     14     12     11      3   30.33400    0.00000  -30.33400    0.00000    0.00000    0.00000 ;     C7-   C12-   C10-    C9
     8     14     12     13      3   30.33400    0.00000  -30.33400    0.00000    0.00000    0.00000 ;     C7-   C12-   C10-   C11
     8     14     15     16      3   30.33400    0.00000  -30.33400    0.00000    0.00000    0.00000 ;     C7-   C12-   C13-   C14
     8     14     15     21      3   30.33400    0.00000  -30.33400    0.00000    0.00000    0.00000 ;     C7-   C12-   C13-   C19
     9      8     14     12      3    8.36800    0.00000   -8.36800    0.00000    0.00000    0.00000 ;     N1-    C7-   C12-   C10
     9      8     14     15      3    8.36800    0.00000   -8.36800    0.00000    0.00000    0.00000 ;     N1-    C7-   C12-   C13
     9     10     11     12      3    0.65084    1.95253    0.00000   -2.60338    0.00000    0.00000 ;     N1-    C8-    C9-   C10
     9     10     11     36      3    0.65084    1.95253    0.00000   -2.60338    0.00000    0.00000 ;     N1-    C8-    C9-    H7
     9     10     11     37      3    0.65084    1.95253    0.00000   -2.60338    0.00000    0.00000 ;     N1-    C8-    C9-    H8
    10      9      8     14      3   20.92000    0.00000  -20.92000    0.00000    0.00000    0.00000 ;     C8-    N1-    C7-   C12
    10     11     12     13      3    0.00000    0.00000    0.00000    0.00000    0.00000    0.00000 ;     C8-    C9-   C10-   C11
    10     11     12     14      3    0.00000    0.00000    0.00000    0.00000    0.00000    0.00000 ;     C8-    C9-   C10-   C12
    11     10      9     33      3    0.00000    0.00000    0.00000    0.00000    0.00000    0.00000 ;     C9-    C8-    N1-    H4
    11     12     13     22      3   30.33400    0.00000  -30.33400    0.00000    0.00000    0.00000 ;     C9-   C10-   C11-   C20
    11     12     13     38      3   30.33400    0.00000  -30.33400    0.00000    0.00000    0.00000 ;     C9-   C10-   C11-    H9
    11     12     14     15      3   30.33400    0.00000  -30.33400    0.00000    0.00000    0.00000 ;     C9-   C10-   C12-   C13
    12     11     10     34      3    0.65084    1.95253    0.00000   -2.60338    0.00000    0.00000 ;    C10-    C9-    C8-    H5
    12     11     10     35      3    0.65084    1.95253    0.00000   -2.60338    0.00000    0.00000 ;    C10-    C9-    C8-    H6
    12     13     22     21      3   30.33400    0.00000  -30.33400    0.00000    0.00000    0.00000 ;    C10-   C11-   C20-   C19
    12     13     22     23      3   30.33400    0.00000  -30.33400    0.00000    0.00000    0.00000 ;    C10-   C11-   C20-    N2
    12     14     15     16      3   30.33400    0.00000  -30.33400    0.00000    0.00000    0.00000 ;    C10-   C12-   C13-   C14
    12     14     15     21      3   30.33400    0.00000  -30.33400    0.00000    0.00000    0.00000 ;    C10-   C12-   C13-   C19
    13     12     11     36      3    0.00000    0.00000    0.00000    0.00000    0.00000    0.00000 ;    C11-   C10-    C9-    H7
    13     12     11     37      3    0.00000    0.00000    0.00000    0.00000    0.00000    0.00000 ;    C11-   C10-    C9-    H8
    13     12     14     15      3   30.33400    0.00000  -30.33400    0.00000    0.00000    0.00000 ;    C11-   C10-   C12-   C13
    13     22     21     15      3   30.33400    0.00000  -30.33400    0.00000    0.00000    0.00000 ;    C11-   C20-   C19-   C13
    13     22     21     48      3   30.33400    0.00000  -30.33400    0.00000    0.00000    0.00000 ;    C11-   C20-   C19-   H19
    14      8      9     33      3   20.92000    0.00000  -20.92000    0.00000    0.00000    0.00000 ;    C12-    C7-    N1-    H4
    14     12     11     36      3    0.00000    0.00000    0.00000    0.00000    0.00000    0.00000 ;    C12-   C10-    C9-    H7
    14     12     11     37      3    0.00000    0.00000    0.00000    0.00000    0.00000    0.00000 ;    C12-   C10-    C9-    H8
    14     12     13     22      3   30.33400    0.00000  -30.33400    0.00000    0.00000    0.00000 ;    C12-   C10-   C11-   C20
    14     12     13     38      3   30.33400    0.00000  -30.33400    0.00000    0.00000    0.00000 ;    C12-   C10-   C11-    H9
    14     15     16     17      3    0.00000    0.00000    0.00000    0.00000    0.00000    0.00000 ;    C12-   C13-   C14-   C15
    14     15     16     20      3    0.00000    0.00000    0.00000    0.00000    0.00000    0.00000 ;    C12-   C13-   C14-   C18
    14     15     16     39      3    0.00000    0.00000    0.00000    0.00000    0.00000    0.00000 ;    C12-   C13-   C14-   H10
    14     15     21     22      3   30.33400    0.00000  -30.33400    0.00000    0.00000    0.00000 ;    C12-   C13-   C19-   C20
    14     15     21     48      3   30.33400    0.00000  -30.33400    0.00000    0.00000    0.00000 ;    C12-   C13-   C19-   H19
    15     16     17     18      3    0.65084    1.95253    0.00000   -2.60338    0.00000    0.00000 ;    C13-   C14-   C15-   C16
    15     16     17     40      3    0.65084    1.95253    0.00000   -2.60338    0.00000    0.00000 ;    C13-   C14-   C15-   H11
    15     16     17     41      3    0.65084    1.95253    0.00000   -2.60338    0.00000    0.00000 ;    C13-   C14-   C15-   H12
    15     16     20     19      3    0.65084    1.95253    0.00000   -2.60338    0.00000    0.00000 ;    C13-   C14-   C18-   C17
    15     16     20     46      3    0.65084    1.95253    0.00000   -2.60338    0.00000    0.00000 ;    C13-   C14-   C18-   H17
    15     16     20     47      3    0.65084    1.95253    0.00000   -2.60338    0.00000    0.00000 ;    C13-   C14-   C18-   H18
    15     21     22     23      3   30.33400    0.00000  -30.33400    0.00000    0.00000    0.00000 ;    C13-   C19-   C20-    N2
    16     15     21     22      3   30.33400    0.00000  -30.33400    0.00000    0.00000    0.00000 ;    C14-   C13-   C19-   C20
    16     15     21     48      3   30.33400    0.00000  -30.33400    0.00000    0.00000    0.00000 ;    C14-   C13-   C19-   H19
    16     17     18     19      3    3.68192    3.09616   -2.09200   -3.01248    0.00000    0.00000 ;    C14-   C15-   C16-   C17
    16     17     18     42      3    0.66944    2.00832    0.00000   -2.67776    0.00000    0.00000 ;    C14-   C15-   C16-   H13
    16     17     18     43      3    0.66944    2.00832    0.00000   -2.67776    0.00000    0.00000 ;    C14-   C15-   C16-   H14
    16     20     19     18      3    3.68192    3.09616   -2.09200   -3.01248    0.00000    0.00000 ;    C14-   C18-   C17-   C16
    16     20     19     44      3    0.66944    2.00832    0.00000   -2.67776    0.00000    0.00000 ;    C14-   C18-   C17-   H15
    16     20     19     45      3    0.66944    2.00832    0.00000   -2.67776    0.00000    0.00000 ;    C14-   C18-   C17-   H16
    17     16     15     21      3    0.00000    0.00000    0.00000    0.00000    0.00000    0.00000 ;    C15-   C14-   C13-   C19
    17     16     20     19      3    3.68192    3.09616   -2.09200   -3.01248    0.00000    0.00000 ;    C15-   C14-   C18-   C17
    17     16     20     46      3    0.66944    2.00832    0.00000   -2.67776    0.00000    0.00000 ;    C15-   C14-   C18-   H17
    17     16     20     47      3    0.66944    2.00832    0.00000   -2.67776    0.00000    0.00000 ;    C15-   C14-   C18-   H18
    17     18     19     20      3    3.68192    3.09616   -2.09200   -3.01248    0.00000    0.00000 ;    C15-   C16-   C17-   C18
    17     18     19     44      3    0.66944    2.00832    0.00000   -2.67776    0.00000    0.00000 ;    C15-   C16-   C17-   H15
    17     18     19     45      3    0.66944    2.00832    0.00000   -2.67776    0.00000    0.00000 ;    C15-   C16-   C17-   H16
    18     17     16     20      3    3.68192    3.09616   -2.09200   -3.01248    0.00000    0.00000 ;    C16-   C15-   C14-   C18
    18     17     16     39      3    0.66944    2.00832    0.00000   -2.67776    0.00000    0.00000 ;    C16-   C15-   C14-   H10
    18     19     20     46      3    0.66944    2.00832    0.00000   -2.67776    0.00000    0.00000 ;    C16-   C17-   C18-   H17
    18     19     20     47      3    0.66944    2.00832    0.00000   -2.67776    0.00000    0.00000 ;    C16-   C17-   C18-   H18
    19     18     17     40      3    0.66944    2.00832    0.00000   -2.67776    0.00000    0.00000 ;    C17-   C16-   C15-   H11
    19     18     17     41      3    0.66944    2.00832    0.00000   -2.67776    0.00000    0.00000 ;    C17-   C16-   C15-   H12
    19     20     16     39      3    0.66944    2.00832    0.00000   -2.67776    0.00000    0.00000 ;    C17-   C18-   C14-   H10
    20     16     15     21      3    0.00000    0.00000    0.00000    0.00000    0.00000    0.00000 ;    C18-   C14-   C13-   C19
    20     16     17     40      3    0.66944    2.00832    0.00000   -2.67776    0.00000    0.00000 ;    C18-   C14-   C15-   H11
    20     16     17     41      3    0.66944    2.00832    0.00000   -2.67776    0.00000    0.00000 ;    C18-   C14-   C15-   H12
    20     19     18     42      3    0.66944    2.00832    0.00000   -2.67776    0.00000    0.00000 ;    C18-   C17-   C16-   H13
    20     19     18     43      3    0.66944    2.00832    0.00000   -2.67776    0.00000    0.00000 ;    C18-   C17-   C16-   H14
    21     15     16     39      3    0.00000    0.00000    0.00000    0.00000    0.00000    0.00000 ;    C19-   C13-   C14-   H10
    21     22     13     38      3   30.33400    0.00000  -30.33400    0.00000    0.00000    0.00000 ;    C19-   C20-   C11-    H9
    22     23      3     30      3   14.22560    0.00000  -14.22560    0.00000    0.00000    0.00000 ;    C20-    N2-    C2-    H1
    22     23      4     24      3   14.22560    0.00000  -14.22560    0.00000    0.00000    0.00000 ;    C20-    N2-    C3-   C21
    23      4     24     25      3    0.00000    0.00000    0.00000    0.00000    0.00000    0.00000 ;     N2-    C3-   C21-   C22
    23      4     24     49      3    0.00000    0.00000    0.00000    0.00000    0.00000    0.00000 ;     N2-    C3-   C21-   H20
    23      4     24     50      3    0.00000    0.00000    0.00000    0.00000    0.00000    0.00000 ;     N2-    C3-   C21-   H21
    23     22     13     38      3   30.33400    0.00000  -30.33400    0.00000    0.00000    0.00000 ;     N2-   C20-   C11-    H9
    23     22     21     48      3   30.33400    0.00000  -30.33400    0.00000    0.00000    0.00000 ;     N2-   C20-   C19-   H19
    24     25      7     31      3    0.66944    2.00832    0.00000   -2.67776    0.00000    0.00000 ;    C21-   C22-    C6-    H2
    24     25      7     32      3    0.66944    2.00832    0.00000   -2.67776    0.00000    0.00000 ;    C21-   C22-    C6-    H3
    24     25     26     51      3    0.66944    2.00832    0.00000   -2.67776    0.00000    0.00000 ;    C21-   C22-   C23-   H22
    24     25     26     52      3    0.66944    2.00832    0.00000   -2.67776    0.00000    0.00000 ;    C21-   C22-   C23-   H23
    24     25     26     53      3    0.66944    2.00832    0.00000   -2.67776    0.00000    0.00000 ;    C21-   C22-   C23-   H24
    24     25     27     54      3    0.66944    2.00832    0.00000   -2.67776    0.00000    0.00000 ;    C21-   C22-   C24-   H25
    24     25     27     55      3    0.66944    2.00832    0.00000   -2.67776    0.00000    0.00000 ;    C21-   C22-   C24-   H26
    24     25     27     56      3    0.66944    2.00832    0.00000   -2.67776    0.00000    0.00000 ;    C21-   C22-   C24-   H27
    25      7      6     28      3    0.00000    0.00000    0.00000    0.00000    0.00000    0.00000 ;    C22-    C6-    C5-    O2
    26     25      7     31      3    0.66944    2.00832    0.00000   -2.67776    0.00000    0.00000 ;    C23-   C22-    C6-    H2
    26     25      7     32      3    0.66944    2.00832    0.00000   -2.67776    0.00000    0.00000 ;    C23-   C22-    C6-    H3
    26     25     24     49      3    0.66944    2.00832    0.00000   -2.67776    0.00000    0.00000 ;    C23-   C22-   C21-   H20
    26     25     24     50      3    0.66944    2.00832    0.00000   -2.67776    0.00000    0.00000 ;    C23-   C22-   C21-   H21
    26     25     27     54      3    0.66944    2.00832    0.00000   -2.67776    0.00000    0.00000 ;    C23-   C22-   C24-   H25
    26     25     27     55      3    0.66944    2.00832    0.00000   -2.67776    0.00000    0.00000 ;    C23-   C22-   C24-   H26
    26     25     27     56      3    0.66944    2.00832    0.00000   -2.67776    0.00000    0.00000 ;    C23-   C22-   C24-   H27
    27     25      7     31      3    0.66944    2.00832    0.00000   -2.67776    0.00000    0.00000 ;    C24-   C22-    C6-    H2
    27     25      7     32      3    0.66944    2.00832    0.00000   -2.67776    0.00000    0.00000 ;    C24-   C22-    C6-    H3
    27     25     24     49      3    0.66944    2.00832    0.00000   -2.67776    0.00000    0.00000 ;    C24-   C22-   C21-   H20
    27     25     24     50      3    0.66944    2.00832    0.00000   -2.67776    0.00000    0.00000 ;    C24-   C22-   C21-   H21
    27     25     26     51      3    0.66944    2.00832    0.00000   -2.67776    0.00000    0.00000 ;    C24-   C22-   C23-   H22
    27     25     26     52      3    0.66944    2.00832    0.00000   -2.67776    0.00000    0.00000 ;    C24-   C22-   C23-   H23
    27     25     26     53      3    0.66944    2.00832    0.00000   -2.67776    0.00000    0.00000 ;    C24-   C22-   C23-   H24
    28      6      7     31      3    3.68192   -4.35136    0.00000    1.33888    0.00000    0.00000 ;     O2-    C5-    C6-    H2
    28      6      7     32      3    3.68192   -4.35136    0.00000    1.33888    0.00000    0.00000 ;     O2-    C5-    C6-    H3
    29      1      3     23      3   33.47200    0.00000  -33.47200    0.00000    0.00000    0.00000 ;    C25-    C1-    C2-    N2
    29      1      3     30      3   33.47200    0.00000  -33.47200    0.00000    0.00000    0.00000 ;    C25-    C1-    C2-    H1
    29      1      5      4      3   33.47200    0.00000  -33.47200    0.00000    0.00000    0.00000 ;    C25-    C1-    C4-    C3
    29      1      5      6      3   33.47200    0.00000  -33.47200    0.00000    0.00000    0.00000 ;    C25-    C1-    C4-    C5
    33      9     10     34      3    0.00000    0.00000    0.00000    0.00000    0.00000    0.00000 ;     H4-    N1-    C8-    H5
    33      9     10     35      3    0.00000    0.00000    0.00000    0.00000    0.00000    0.00000 ;     H4-    N1-    C8-    H6
    34     10     11     36      3    0.65084    1.95253    0.00000   -2.60338    0.00000    0.00000 ;     H5-    C8-    C9-    H7
    34     10     11     37      3    0.65084    1.95253    0.00000   -2.60338    0.00000    0.00000 ;     H5-    C8-    C9-    H8
    35     10     11     36      3    0.65084    1.95253    0.00000   -2.60338    0.00000    0.00000 ;     H6-    C8-    C9-    H7
    35     10     11     37      3    0.65084    1.95253    0.00000   -2.60338    0.00000    0.00000 ;     H6-    C8-    C9-    H8
    39     16     17     40      3    0.62760    1.88280    0.00000   -2.51040    0.00000    0.00000 ;    H10-   C14-   C15-   H11
    39     16     17     41      3    0.62760    1.88280    0.00000   -2.51040    0.00000    0.00000 ;    H10-   C14-   C15-   H12
    39     16     20     46      3    0.62760    1.88280    0.00000   -2.51040    0.00000    0.00000 ;    H10-   C14-   C18-   H17
    39     16     20     47      3    0.62760    1.88280    0.00000   -2.51040    0.00000    0.00000 ;    H10-   C14-   C18-   H18
    40     17     18     42      3    0.62760    1.88280    0.00000   -2.51040    0.00000    0.00000 ;    H11-   C15-   C16-   H13
    40     17     18     43      3    0.62760    1.88280    0.00000   -2.51040    0.00000    0.00000 ;    H11-   C15-   C16-   H14
    41     17     18     42      3    0.62760    1.88280    0.00000   -2.51040    0.00000    0.00000 ;    H12-   C15-   C16-   H13
    41     17     18     43      3    0.62760    1.88280    0.00000   -2.51040    0.00000    0.00000 ;    H12-   C15-   C16-   H14
    42     18     19     44      3    0.62760    1.88280    0.00000   -2.51040    0.00000    0.00000 ;    H13-   C16-   C17-   H15
    42     18     19     45      3    0.62760    1.88280    0.00000   -2.51040    0.00000    0.00000 ;    H13-   C16-   C17-   H16
    43     18     19     44      3    0.62760    1.88280    0.00000   -2.51040    0.00000    0.00000 ;    H14-   C16-   C17-   H15
    43     18     19     45      3    0.62760    1.88280    0.00000   -2.51040    0.00000    0.00000 ;    H14-   C16-   C17-   H16
    44     19     20     46      3    0.62760    1.88280    0.00000   -2.51040    0.00000    0.00000 ;    H15-   C17-   C18-   H17
    44     19     20     47      3    0.62760    1.88280    0.00000   -2.51040    0.00000    0.00000 ;    H15-   C17-   C18-   H18
    45     19     20     46      3    0.62760    1.88280    0.00000   -2.51040    0.00000    0.00000 ;    H16-   C17-   C18-   H17
    45     19     20     47      3    0.62760    1.88280    0.00000   -2.51040    0.00000    0.00000 ;    H16-   C17-   C18-   H18

[ dihedrals ] ; impropers
; treated as propers in GROMACS to use correct AMBER analytical function
;    I      j      k      l   func   phase     kd      pn
     1     30      3     23      1   180.00   4.60240   2 ;     C1-    H1-    C2-    N2
     3      1      5     29      1   180.00   4.60240   2 ;     C2-    C1-    C4-   C25
     6      1      5      4      1   180.00   4.60240   2 ;     C5-    C1-    C4-    C3
     7      5      6     28      1   180.00  43.93200   2 ;     C6-    C4-    C5-    O2
     8     10      9     33      1   180.00   4.60240   2 ;     C7-    C8-    N1-    H4
     8     12     14     15      1   180.00   4.60240   2 ;     C7-   C10-   C12-   C13
    12     22     13     38      1   180.00   4.60240   2 ;    C10-   C20-   C11-    H9
    13     14     12     11      1   180.00   4.60240   2 ;    C11-   C12-   C10-    C9
    13     21     22     23      1   180.00   4.60240   2 ;    C11-   C19-   C20-    N2
    14      9      8      2      1   180.00  43.93200   2 ;    C12-    N1-    C7-    O1
    15     22     21     48      1   180.00   4.60240   2 ;    C13-   C20-   C19-   H19
    16     14     15     21      1   180.00   4.60240   2 ;    C14-   C12-   C13-   C19
    22      3     23      4      1   180.00   4.60240   2 ;    C20-    C2-    N2-    C3
    24      5      4     23      1   180.00   4.60240   2 ;    C21-    C4-    C3-    N2

; Include Position restraint file
#ifdef POSRES
#include "posre_MOL.itp"
#endif
