
[ moleculetype ]
;name            nrexcl
 MOL              3

[ atoms ]
;   nr  type  resi  res  atom  cgnr     charge      mass       ; qtot   bond_type
     1   C3     1   MOL    C1    1    -0.394451     12.01000 ; qtot -0.394
     2    C     1   MOL    C2    2     0.770036     12.01000 ; qtot 0.376
     3    O     1   MOL    O1    3    -0.628563     16.00000 ; qtot -0.253
     4   C3     1   MOL    C3    4    -0.180160     12.01000 ; qtot -0.433
     5   CA     1   MOL    C4    5     0.403308     12.01000 ; qtot -0.030
     6   CA     1   MOL    C5    6    -0.470561     12.01000 ; qtot -0.500
     7   CA     1   MOL    C6    7     0.465266     12.01000 ; qtot -0.035
     8   CA     1   MOL    C7    8    -0.401133     12.01000 ; qtot -0.436
     9   CA     1   MOL    C8    9    -0.089880     12.01000 ; qtot -0.526
    10   CA     1   MOL    C9   10    -0.020638     12.01000 ; qtot -0.547
    11   CA     1   MOL   C10   11    -0.007811     12.01000 ; qtot -0.555
    12   CA     1   MOL   C11   12    -0.179996     12.01000 ; qtot -0.735
    13   CA     1   MOL   C12   13    -0.311440     12.01000 ; qtot -1.046
    14   CA     1   MOL   C13   14     0.346241     12.01000 ; qtot -0.700
    15   C3     1   MOL   C14   15     0.023868     12.01000 ; qtot -0.676
    16    N     1   MOL    N1   16    -0.419483     14.01000 ; qtot -1.095
    17   C3     1   MOL   C15   17    -0.482070     12.01000 ; qtot -1.577
    18   C3     1   MOL   C16   18     0.302234     12.01000 ; qtot -1.275
    19   OS     1   MOL    O2   19    -0.343890     16.00000 ; qtot -1.619
    20    F     1   MOL    F1   20    -0.216576     19.00000 ; qtot -1.836
    21    N     1   MOL    N2   21    -0.459431     14.01000 ; qtot -2.295
    22    C     1   MOL   C17   22     0.688225     12.01000 ; qtot -1.607
    23    O     1   MOL    O3   23    -0.571942     16.00000 ; qtot -2.179
    24   OS     1   MOL    O4   24    -0.378029     16.00000 ; qtot -2.557
    25    C     1   MOL   C18   25     0.703984     12.01000 ; qtot -1.853
    26    O     1   MOL    O5   26    -0.594824     16.00000 ; qtot -2.448
    27    N     1   MOL    N3   27    -0.612131     14.01000 ; qtot -3.060
    28   CA     1   MOL   C19   28     0.233552     12.01000 ; qtot -2.826
    29   CA     1   MOL   C20   29    -0.371894     12.01000 ; qtot -3.198
    30   H1     1   MOL    H1   30     0.155093      1.00800 ; qtot -3.043
    31   H1     1   MOL    H2   31     0.155093      1.00800 ; qtot -2.888
    32   H1     1   MOL    H3   32     0.155093      1.00800 ; qtot -2.733
    33   H1     1   MOL    H4   33     0.141419      1.00800 ; qtot -2.591
    34   H1     1   MOL    H5   34     0.141419      1.00800 ; qtot -2.450
    35   HA     1   MOL    H6   35     0.229858      1.00800 ; qtot -2.220
    36   HA     1   MOL    H7   36     0.207750      1.00800 ; qtot -2.012
    37   HA     1   MOL    H8   37     0.166077      1.00800 ; qtot -1.846
    38   HA     1   MOL    H9   38     0.188046      1.00800 ; qtot -1.658
    39   HA     1   MOL   H10   39     0.198172      1.00800 ; qtot -1.460
    40   H1     1   MOL   H11   40     0.083800      1.00800 ; qtot -1.376
    41   H1     1   MOL   H12   41     0.083800      1.00800 ; qtot -1.293
    42   HN     1   MOL   H13   42     0.314145      1.00800 ; qtot -0.978
    43   HC     1   MOL   H14   43     0.160753      1.00800 ; qtot -0.818
    44   HC     1   MOL   H15   44     0.160753      1.00800 ; qtot -0.657
    45   H1     1   MOL   H16   45     0.052328      1.00800 ; qtot -0.605
    46   HN     1   MOL   H17   46     0.376357      1.00800 ; qtot -0.228
    47   HA     1   MOL   H18   47     0.228232      1.00800 ; qtot -0.000

[ bonds ]
;   ai     aj funct   r             k
     1     16   1    1.4619e-01    2.7506e+05 ;     C1 - N1    
     1     30   1    1.0969e-01    2.7665e+05 ;     C1 - H1    
     1     31   1    1.0969e-01    2.7665e+05 ;     C1 - H2    
     1     32   1    1.0969e-01    2.7665e+05 ;     C1 - H3    
     2      3   1    1.2183e-01    5.3363e+05 ;     C2 - O1    
     2     16   1    1.3789e-01    3.5782e+05 ;     C2 - N1    
     2     17   1    1.5241e-01    2.6192e+05 ;     C2 - C15   
     4     18   1    1.5375e-01    2.5179e+05 ;     C3 - C16   
     4     19   1    1.4316e-01    2.5824e+05 ;     C3 - O2    
     4     33   1    1.0969e-01    2.7665e+05 ;     C3 - H4    
     4     34   1    1.0969e-01    2.7665e+05 ;     C3 - H5    
     5      6   1    1.3984e-01    3.8585e+05 ;     C4 - C5    
     5     10   1    1.3984e-01    3.8585e+05 ;     C4 - C9    
     5     19   1    1.3696e-01    3.1514e+05 ;     C4 - O2    
     6      7   1    1.3984e-01    3.8585e+05 ;     C5 - C6    
     6     35   1    1.0860e-01    2.8937e+05 ;     C5 - H6    
     7      8   1    1.3984e-01    3.8585e+05 ;     C6 - C7    
     7     20   1    1.3490e-01    2.9941e+05 ;     C6 - F1    
     8      9   1    1.3984e-01    3.8585e+05 ;     C7 - C8    
     8     36   1    1.0860e-01    2.8937e+05 ;     C7 - H7    
     9     10   1    1.3984e-01    3.8585e+05 ;     C8 - C9    
     9     37   1    1.0860e-01    2.8937e+05 ;     C8 - H8    
    10     21   1    1.4121e-01    3.2150e+05 ;     C9 - N2    
    11     12   1    1.3984e-01    3.8585e+05 ;    C10 - C11   
    11     22   1    1.4906e-01    2.8945e+05 ;    C10 - C17   
    11     29   1    1.3984e-01    3.8585e+05 ;    C10 - C20   
    12     13   1    1.3984e-01    3.8585e+05 ;    C11 - C12   
    12     38   1    1.0860e-01    2.8937e+05 ;    C11 - H9    
    13     14   1    1.3984e-01    3.8585e+05 ;    C12 - C13   
    13     39   1    1.0860e-01    2.8937e+05 ;    C12 - H10   
    14     24   1    1.3696e-01    3.1514e+05 ;    C13 - O4    
    14     28   1    1.3984e-01    3.8585e+05 ;    C13 - C19   
    15     24   1    1.4316e-01    2.5824e+05 ;    C14 - O4    
    15     25   1    1.5241e-01    2.6192e+05 ;    C14 - C18   
    15     40   1    1.0969e-01    2.7665e+05 ;    C14 - H11   
    15     41   1    1.0969e-01    2.7665e+05 ;    C14 - H12   
    16     42   1    1.0129e-01    3.3740e+05 ;     N1 - H13   
    17     18   1    1.5375e-01    2.5179e+05 ;    C15 - C16   
    17     43   1    1.0969e-01    2.7665e+05 ;    C15 - H14   
    17     44   1    1.0969e-01    2.7665e+05 ;    C15 - H15   
    18     21   1    1.4619e-01    2.7506e+05 ;    C16 - N2    
    18     45   1    1.0969e-01    2.7665e+05 ;    C16 - H16   
    21     22   1    1.3789e-01    3.5782e+05 ;     N2 - C17   
    22     23   1    1.2183e-01    5.3363e+05 ;    C17 - O3    
    25     26   1    1.2183e-01    5.3363e+05 ;    C18 - O5    
    25     27   1    1.3789e-01    3.5782e+05 ;    C18 - N3    
    27     28   1    1.4121e-01    3.2150e+05 ;     N3 - C19   
    27     46   1    1.0129e-01    3.3740e+05 ;     N3 - H17   
    28     29   1    1.3984e-01    3.8585e+05 ;    C19 - C20   
    29     47   1    1.0860e-01    2.8937e+05 ;    C20 - H18   

[ pairs ]
;   ai     aj    funct
     1      3      1 ;     C1 - O1    
     1     17      1 ;     C1 - C15   
     2      4      1 ;     C2 - C3    
     2     21      1 ;     C2 - N2    
     2     45      1 ;     C2 - H16   
     3     18      1 ;     O1 - C16   
     3     42      1 ;     O1 - H13   
     3     43      1 ;     O1 - H14   
     3     44      1 ;     O1 - H15   
     4      6      1 ;     C3 - C5    
     4     10      1 ;     C3 - C9    
     4     22      1 ;     C3 - C17   
     4     43      1 ;     C3 - H14   
     4     44      1 ;     C3 - H15   
     5      8      1 ;     C4 - C7    
     5     18      1 ;     C4 - C16   
     5     20      1 ;     C4 - F1    
     5     22      1 ;     C4 - C17   
     5     33      1 ;     C4 - H4    
     5     34      1 ;     C4 - H5    
     5     37      1 ;     C4 - H8    
     6      9      1 ;     C5 - C8    
     6     21      1 ;     C5 - N2    
     6     36      1 ;     C5 - H7    
     7     10      1 ;     C6 - C9    
     7     19      1 ;     C6 - O2    
     7     37      1 ;     C6 - H8    
     8     21      1 ;     C7 - N2    
     8     35      1 ;     C7 - H6    
     9     18      1 ;     C8 - C16   
     9     19      1 ;     C8 - O2    
     9     20      1 ;     C8 - F1    
     9     22      1 ;     C8 - C17   
    10     11      1 ;     C9 - C10   
    10     17      1 ;     C9 - C15   
    10     23      1 ;     C9 - O3    
    10     35      1 ;     C9 - H6    
    10     36      1 ;     C9 - H7    
    10     45      1 ;     C9 - H16   
    11     14      1 ;    C10 - C13   
    11     18      1 ;    C10 - C16   
    11     27      1 ;    C10 - N3    
    11     39      1 ;    C10 - H10   
    12     21      1 ;    C11 - N2    
    12     23      1 ;    C11 - O3    
    12     24      1 ;    C11 - O4    
    12     28      1 ;    C11 - C19   
    12     47      1 ;    C11 - H18   
    13     15      1 ;    C12 - C14   
    13     22      1 ;    C12 - C17   
    13     27      1 ;    C12 - N3    
    13     29      1 ;    C12 - C20   
    14     25      1 ;    C13 - C18   
    14     38      1 ;    C13 - H9    
    14     40      1 ;    C13 - H11   
    14     41      1 ;    C13 - H12   
    14     46      1 ;    C13 - H17   
    14     47      1 ;    C13 - H18   
    15     28      1 ;    C14 - C19   
    15     46      1 ;    C14 - H17   
    16     18      1 ;     N1 - C16   
    16     43      1 ;     N1 - H14   
    16     44      1 ;     N1 - H15   
    17     19      1 ;    C15 - O2    
    17     22      1 ;    C15 - C17   
    17     33      1 ;    C15 - H4    
    17     34      1 ;    C15 - H5    
    17     42      1 ;    C15 - H13   
    18     23      1 ;    C16 - O3    
    19     21      1 ;     O2 - N2    
    19     35      1 ;     O2 - H6    
    19     45      1 ;     O2 - H16   
    20     35      1 ;     F1 - H6    
    20     36      1 ;     F1 - H7    
    21     29      1 ;     N2 - C20   
    21     33      1 ;     N2 - H4    
    21     34      1 ;     N2 - H5    
    21     37      1 ;     N2 - H8    
    21     43      1 ;     N2 - H14   
    21     44      1 ;     N2 - H15   
    22     28      1 ;    C17 - C19   
    22     38      1 ;    C17 - H9    
    22     45      1 ;    C17 - H16   
    22     47      1 ;    C17 - H18   
    23     29      1 ;     O3 - C20   
    24     26      1 ;     O4 - O5    
    24     27      1 ;     O4 - N3    
    24     29      1 ;     O4 - C20   
    24     39      1 ;     O4 - H10   
    25     29      1 ;    C18 - C20   
    26     28      1 ;     O5 - C19   
    26     40      1 ;     O5 - H11   
    26     41      1 ;     O5 - H12   
    26     46      1 ;     O5 - H17   
    27     40      1 ;     N3 - H11   
    27     41      1 ;     N3 - H12   
    27     47      1 ;     N3 - H18   
    28     39      1 ;    C19 - H10   
    29     38      1 ;    C20 - H9    
    29     46      1 ;    C20 - H17   
    30      2      1 ;     H1 - C2    
    30     42      1 ;     H1 - H13   
    31      2      1 ;     H2 - C2    
    31     42      1 ;     H2 - H13   
    32      2      1 ;     H3 - C2    
    32     42      1 ;     H3 - H13   
    33     45      1 ;     H4 - H16   
    34     45      1 ;     H5 - H16   
    36     37      1 ;     H7 - H8    
    38     39      1 ;     H9 - H10   
    43     45      1 ;    H14 - H16   
    44     45      1 ;    H15 - H16   

[ angles ]
;   ai     aj     ak    funct   theta         cth
     1     16      2      1    1.2069e+02    5.3053e+02 ;     C1 - N1     - C2    
     1     16     42      1    1.1768e+02    3.8325e+02 ;     C1 - N1     - H13   
     2     16     42      1    1.1755e+02    4.0417e+02 ;     C2 - N1     - H13   
     2     17     18      1    1.1104e+02    5.2969e+02 ;     C2 - C15    - C16   
     2     17     43      1    1.0877e+02    3.9246e+02 ;     C2 - C15    - H14   
     2     17     44      1    1.0877e+02    3.9246e+02 ;     C2 - C15    - H15   
     3      2     16      1    1.2305e+02    6.2091e+02 ;     O1 - C2     - N1    
     3      2     17      1    1.2320e+02    5.6400e+02 ;     O1 - C2     - C15   
     4     18     17      1    1.1151e+02    5.2635e+02 ;     C3 - C16    - C15   
     4     18     21      1    1.1161e+02    5.5145e+02 ;     C3 - C16    - N2    
     4     18     45      1    1.0956e+02    3.8828e+02 ;     C3 - C16    - H16   
     4     19      5      1    1.1796e+02    5.2300e+02 ;     C3 - O2     - C4    
     5      6      7      1    1.2002e+02    5.5731e+02 ;     C4 - C5     - C6    
     5      6     35      1    1.1988e+02    4.0334e+02 ;     C4 - C5     - H6    
     5     10      9      1    1.2002e+02    5.5731e+02 ;     C4 - C9     - C8    
     5     10     21      1    1.2019e+02    5.6819e+02 ;     C4 - C9     - N2    
     6      5     10      1    1.2002e+02    5.5731e+02 ;     C5 - C4     - C9    
     6      5     19      1    1.1920e+02    5.8241e+02 ;     C5 - C4     - O2    
     6      7      8      1    1.2002e+02    5.5731e+02 ;     C5 - C6     - C7    
     6      7     20      1    1.1896e+02    5.6149e+02 ;     C5 - C6     - F1    
     7      6     35      1    1.1988e+02    4.0334e+02 ;     C6 - C5     - H6    
     7      8      9      1    1.2002e+02    5.5731e+02 ;     C6 - C7     - C8    
     7      8     36      1    1.1988e+02    4.0334e+02 ;     C6 - C7     - H7    
     8      7     20      1    1.1896e+02    5.6149e+02 ;     C7 - C6     - F1    
     8      9     10      1    1.2002e+02    5.5731e+02 ;     C7 - C8     - C9    
     8      9     37      1    1.1988e+02    4.0334e+02 ;     C7 - C8     - H8    
     9      8     36      1    1.1988e+02    4.0334e+02 ;     C8 - C7     - H7    
     9     10     21      1    1.2019e+02    5.6819e+02 ;     C8 - C9     - N2    
    10      5     19      1    1.1920e+02    5.8241e+02 ;     C9 - C4     - O2    
    10      9     37      1    1.1988e+02    4.0334e+02 ;     C9 - C8     - H8    
    10     21     18      1    1.1983e+02    5.2718e+02 ;     C9 - N2     - C16   
    10     21     22      1    1.2371e+02    5.3388e+02 ;     C9 - N2     - C17   
    11     12     13      1    1.2002e+02    5.5731e+02 ;    C10 - C11    - C12   
    11     12     38      1    1.1988e+02    4.0334e+02 ;    C10 - C11    - H9    
    11     22     21      1    1.1525e+02    5.6651e+02 ;    C10 - C17    - N2    
    11     22     23      1    1.2260e+02    5.7488e+02 ;    C10 - C17    - O3    
    11     29     28      1    1.2002e+02    5.5731e+02 ;    C10 - C20    - C19   
    11     29     47      1    1.1988e+02    4.0334e+02 ;    C10 - C20    - H18   
    12     11     22      1    1.2033e+02    5.3806e+02 ;    C11 - C10    - C17   
    12     11     29      1    1.2002e+02    5.5731e+02 ;    C11 - C10    - C20   
    12     13     14      1    1.2002e+02    5.5731e+02 ;    C11 - C12    - C13   
    12     13     39      1    1.1988e+02    4.0334e+02 ;    C11 - C12    - H10   
    13     12     38      1    1.1988e+02    4.0334e+02 ;    C12 - C11    - H9    
    13     14     24      1    1.1920e+02    5.8241e+02 ;    C12 - C13    - O4    
    13     14     28      1    1.2002e+02    5.5731e+02 ;    C12 - C13    - C19   
    14     13     39      1    1.1988e+02    4.0334e+02 ;    C13 - C12    - H10   
    14     24     15      1    1.1796e+02    5.2300e+02 ;    C13 - O4     - C14   
    14     28     27      1    1.2019e+02    5.6819e+02 ;    C13 - C19    - N3    
    14     28     29      1    1.2002e+02    5.5731e+02 ;    C13 - C19    - C20   
    15     25     26      1    1.2320e+02    5.6400e+02 ;    C14 - C18    - O5    
    15     25     27      1    1.1518e+02    5.5898e+02 ;    C14 - C18    - N3    
    16      1     30      1    1.0888e+02    4.1673e+02 ;     N1 - C1     - H1    
    16      1     31      1    1.0888e+02    4.1673e+02 ;     N1 - C1     - H2    
    16      1     32      1    1.0888e+02    4.1673e+02 ;     N1 - C1     - H3    
    16      2     17      1    1.1518e+02    5.5898e+02 ;     N1 - C2     - C15   
    17     18     21      1    1.1161e+02    5.5145e+02 ;    C15 - C16    - N2    
    17     18     45      1    1.0956e+02    3.8828e+02 ;    C15 - C16    - H16   
    18      4     19      1    1.0797e+02    5.6902e+02 ;    C16 - C3     - O2    
    18      4     33      1    1.0956e+02    3.8828e+02 ;    C16 - C3     - H4    
    18      4     34      1    1.0956e+02    3.8828e+02 ;    C16 - C3     - H5    
    18     17     43      1    1.0980e+02    3.8744e+02 ;    C16 - C15    - H14   
    18     17     44      1    1.0980e+02    3.8744e+02 ;    C16 - C15    - H15   
    18     21     22      1    1.2069e+02    5.3053e+02 ;    C16 - N2     - C17   
    19      4     33      1    1.0978e+02    4.2509e+02 ;     O2 - C3     - H4    
    19      4     34      1    1.0978e+02    4.2509e+02 ;     O2 - C3     - H5    
    21     18     45      1    1.0888e+02    4.1673e+02 ;     N2 - C16    - H16   
    21     22     23      1    1.2305e+02    6.2091e+02 ;     N2 - C17    - O3    
    22     11     29      1    1.2033e+02    5.3806e+02 ;    C17 - C10    - C20   
    24     14     28      1    1.1920e+02    5.8241e+02 ;     O4 - C13    - C19   
    24     15     25      1    1.0921e+02    5.6902e+02 ;     O4 - C14    - C18   
    24     15     40      1    1.0978e+02    4.2509e+02 ;     O4 - C14    - H11   
    24     15     41      1    1.0978e+02    4.2509e+02 ;     O4 - C14    - H12   
    25     15     40      1    1.0822e+02    3.9330e+02 ;    C18 - C14    - H11   
    25     15     41      1    1.0822e+02    3.9330e+02 ;    C18 - C14    - H12   
    25     27     28      1    1.2371e+02    5.3388e+02 ;    C18 - N3     - C19   
    25     27     46      1    1.1755e+02    4.0417e+02 ;    C18 - N3     - H17   
    26     25     27      1    1.2305e+02    6.2091e+02 ;     O5 - C18    - N3    
    27     28     29      1    1.2019e+02    5.6819e+02 ;     N3 - C19    - C20   
    28     27     46      1    1.1600e+02    3.9832e+02 ;    C19 - N3     - H17   
    28     29     47      1    1.1988e+02    4.0334e+02 ;    C19 - C20    - H18   
    30      1     31      1    1.0846e+02    3.2803e+02 ;     H1 - C1     - H2    
    30      1     32      1    1.0846e+02    3.2803e+02 ;     H1 - C1     - H3    
    31      1     32      1    1.0846e+02    3.2803e+02 ;     H2 - C1     - H3    
    33      4     34      1    1.0846e+02    3.2803e+02 ;     H4 - C3     - H5    
    40     15     41      1    1.0846e+02    3.2803e+02 ;    H11 - C14    - H12   
    43     17     44      1    1.0758e+02    3.2970e+02 ;    H14 - C15    - H15   

[ dihedrals ] ; propers
; treated as RBs in GROMACS to use combine multiple AMBER torsions per quartet
;    I      j      k      l   func    C0         C1         C2         C3         C4         C5
     1     16      2      3      3   20.92000    0.00000  -20.92000    0.00000    0.00000    0.00000 ;     C1-    N1-    C2-    O1
     1     16      2     17      3    6.27600    6.27600    0.00000    0.00000    0.00000    0.00000 ;     C1-    N1-    C2-   C15
     2     17     18      4      3    0.65084    1.95253    0.00000   -2.60338    0.00000    0.00000 ;     C2-   C15-   C16-    C3
     2     17     18     21      3    0.65084    1.95253    0.00000   -2.60338    0.00000    0.00000 ;     C2-   C15-   C16-    N2
     2     17     18     45      3    0.65084    1.95253    0.00000   -2.60338    0.00000    0.00000 ;     C2-   C15-   C16-   H16
     3      2     16     42      3   29.28800   -8.36800  -20.92000    0.00000    0.00000    0.00000 ;     O1-    C2-    N1-   H13
     3      2     17     18      3    0.00000    0.00000    0.00000    0.00000    0.00000    0.00000 ;     O1-    C2-   C15-   C16
     3      2     17     43      3    3.68192   -4.35136    0.00000    1.33888    0.00000    0.00000 ;     O1-    C2-   C15-   H14
     3      2     17     44      3    3.68192   -4.35136    0.00000    1.33888    0.00000    0.00000 ;     O1-    C2-   C15-   H15
     4     18     17     43      3    0.66944    2.00832    0.00000   -2.67776    0.00000    0.00000 ;     C3-   C16-   C15-   H14
     4     18     17     44      3    0.66944    2.00832    0.00000   -2.67776    0.00000    0.00000 ;     C3-   C16-   C15-   H15
     4     18     21     10      3    0.00000    0.00000    0.00000    0.00000    0.00000    0.00000 ;     C3-   C16-    N2-    C9
     4     18     21     22      3    2.84512   -4.10032   16.73600    2.51040  -16.73600    0.00000 ;     C3-   C16-    N2-   C17
     4     19      5      6      3    7.53120    0.00000   -7.53120    0.00000    0.00000    0.00000 ;     C3-    O2-    C4-    C5
     4     19      5     10      3    7.53120    0.00000   -7.53120    0.00000    0.00000    0.00000 ;     C3-    O2-    C4-    C9
     5      6      7      8      3   30.33400    0.00000  -30.33400    0.00000    0.00000    0.00000 ;     C4-    C5-    C6-    C7
     5      6      7     20      3   30.33400    0.00000  -30.33400    0.00000    0.00000    0.00000 ;     C4-    C5-    C6-    F1
     5     10      9      8      3   30.33400    0.00000  -30.33400    0.00000    0.00000    0.00000 ;     C4-    C9-    C8-    C7
     5     10      9     37      3   30.33400    0.00000  -30.33400    0.00000    0.00000    0.00000 ;     C4-    C9-    C8-    H8
     5     10     21     18      3    3.76560    0.00000   -3.76560    0.00000    0.00000    0.00000 ;     C4-    C9-    N2-   C16
     5     10     21     22      3    3.76560    0.00000   -3.76560    0.00000    0.00000    0.00000 ;     C4-    C9-    N2-   C17
     5     19      4     18      3    1.60387    4.81160    0.00000   -6.41547    0.00000    0.00000 ;     C4-    O2-    C3-   C16
     5     19      4     33      3    1.60387    4.81160    0.00000   -6.41547    0.00000    0.00000 ;     C4-    O2-    C3-    H4
     5     19      4     34      3    1.60387    4.81160    0.00000   -6.41547    0.00000    0.00000 ;     C4-    O2-    C3-    H5
     6      5     10      9      3   30.33400    0.00000  -30.33400    0.00000    0.00000    0.00000 ;     C5-    C4-    C9-    C8
     6      5     10     21      3   30.33400    0.00000  -30.33400    0.00000    0.00000    0.00000 ;     C5-    C4-    C9-    N2
     6      7      8      9      3   30.33400    0.00000  -30.33400    0.00000    0.00000    0.00000 ;     C5-    C6-    C7-    C8
     6      7      8     36      3   30.33400    0.00000  -30.33400    0.00000    0.00000    0.00000 ;     C5-    C6-    C7-    H7
     7      6      5     10      3   30.33400    0.00000  -30.33400    0.00000    0.00000    0.00000 ;     C6-    C5-    C4-    C9
     7      6      5     19      3   30.33400    0.00000  -30.33400    0.00000    0.00000    0.00000 ;     C6-    C5-    C4-    O2
     7      8      9     10      3   30.33400    0.00000  -30.33400    0.00000    0.00000    0.00000 ;     C6-    C7-    C8-    C9
     7      8      9     37      3   30.33400    0.00000  -30.33400    0.00000    0.00000    0.00000 ;     C6-    C7-    C8-    H8
     8      7      6     35      3   30.33400    0.00000  -30.33400    0.00000    0.00000    0.00000 ;     C7-    C6-    C5-    H6
     8      9     10     21      3   30.33400    0.00000  -30.33400    0.00000    0.00000    0.00000 ;     C7-    C8-    C9-    N2
     9      8      7     20      3   30.33400    0.00000  -30.33400    0.00000    0.00000    0.00000 ;     C8-    C7-    C6-    F1
     9     10      5     19      3   30.33400    0.00000  -30.33400    0.00000    0.00000    0.00000 ;     C8-    C9-    C4-    O2
     9     10     21     18      3    3.76560    0.00000   -3.76560    0.00000    0.00000    0.00000 ;     C8-    C9-    N2-   C16
     9     10     21     22      3    3.76560    0.00000   -3.76560    0.00000    0.00000    0.00000 ;     C8-    C9-    N2-   C17
    10      5      6     35      3   30.33400    0.00000  -30.33400    0.00000    0.00000    0.00000 ;     C9-    C4-    C5-    H6
    10      9      8     36      3   30.33400    0.00000  -30.33400    0.00000    0.00000    0.00000 ;     C9-    C8-    C7-    H7
    10     21     18     17      3    0.00000    0.00000    0.00000    0.00000    0.00000    0.00000 ;     C9-    N2-   C16-   C15
    10     21     18     45      3    0.00000    0.00000    0.00000    0.00000    0.00000    0.00000 ;     C9-    N2-   C16-   H16
    10     21     22     11      3   20.92000    0.00000  -20.92000    0.00000    0.00000    0.00000 ;     C9-    N2-   C17-   C10
    10     21     22     23      3   20.92000    0.00000  -20.92000    0.00000    0.00000    0.00000 ;     C9-    N2-   C17-    O3
    11     12     13     14      3   30.33400    0.00000  -30.33400    0.00000    0.00000    0.00000 ;    C10-   C11-   C12-   C13
    11     12     13     39      3   30.33400    0.00000  -30.33400    0.00000    0.00000    0.00000 ;    C10-   C11-   C12-   H10
    11     22     21     18      3   20.92000    0.00000  -20.92000    0.00000    0.00000    0.00000 ;    C10-   C17-    N2-   C16
    11     29     28     14      3   30.33400    0.00000  -30.33400    0.00000    0.00000    0.00000 ;    C10-   C20-   C19-   C13
    11     29     28     27      3   30.33400    0.00000  -30.33400    0.00000    0.00000    0.00000 ;    C10-   C20-   C19-    N3
    12     11     22     21      3    8.36800    0.00000   -8.36800    0.00000    0.00000    0.00000 ;    C11-   C10-   C17-    N2
    12     11     22     23      3    8.36800    0.00000   -8.36800    0.00000    0.00000    0.00000 ;    C11-   C10-   C17-    O3
    12     11     29     28      3   30.33400    0.00000  -30.33400    0.00000    0.00000    0.00000 ;    C11-   C10-   C20-   C19
    12     11     29     47      3   30.33400    0.00000  -30.33400    0.00000    0.00000    0.00000 ;    C11-   C10-   C20-   H18
    12     13     14     24      3   30.33400    0.00000  -30.33400    0.00000    0.00000    0.00000 ;    C11-   C12-   C13-    O4
    12     13     14     28      3   30.33400    0.00000  -30.33400    0.00000    0.00000    0.00000 ;    C11-   C12-   C13-   C19
    13     12     11     22      3   30.33400    0.00000  -30.33400    0.00000    0.00000    0.00000 ;    C12-   C11-   C10-   C17
    13     12     11     29      3   30.33400    0.00000  -30.33400    0.00000    0.00000    0.00000 ;    C12-   C11-   C10-   C20
    13     14     24     15      3    7.53120    0.00000   -7.53120    0.00000    0.00000    0.00000 ;    C12-   C13-    O4-   C14
    13     14     28     27      3   30.33400    0.00000  -30.33400    0.00000    0.00000    0.00000 ;    C12-   C13-   C19-    N3
    13     14     28     29      3   30.33400    0.00000  -30.33400    0.00000    0.00000    0.00000 ;    C12-   C13-   C19-   C20
    14     13     12     38      3   30.33400    0.00000  -30.33400    0.00000    0.00000    0.00000 ;    C13-   C12-   C11-    H9
    14     24     15     25      3    1.60387    4.81160    0.00000   -6.41547    0.00000    0.00000 ;    C13-    O4-   C14-   C18
    14     24     15     40      3    1.60387    4.81160    0.00000   -6.41547    0.00000    0.00000 ;    C13-    O4-   C14-   H11
    14     24     15     41      3    1.60387    4.81160    0.00000   -6.41547    0.00000    0.00000 ;    C13-    O4-   C14-   H12
    14     28     27     25      3    3.76560    0.00000   -3.76560    0.00000    0.00000    0.00000 ;    C13-   C19-    N3-   C18
    14     28     27     46      3    3.76560    0.00000   -3.76560    0.00000    0.00000    0.00000 ;    C13-   C19-    N3-   H17
    14     28     29     47      3   30.33400    0.00000  -30.33400    0.00000    0.00000    0.00000 ;    C13-   C19-   C20-   H18
    15     24     14     28      3    7.53120    0.00000   -7.53120    0.00000    0.00000    0.00000 ;    C14-    O4-   C13-   C19
    15     25     27     28      3   20.92000    0.00000  -20.92000    0.00000    0.00000    0.00000 ;    C14-   C18-    N3-   C19
    15     25     27     46      3   20.92000    0.00000  -20.92000    0.00000    0.00000    0.00000 ;    C14-   C18-    N3-   H17
    16      2     17     18      3    0.83680    0.00000   -2.76144    0.00000    3.34720    0.00000 ;     N1-    C2-   C15-   C16
    16      2     17     43      3    0.00000    0.00000    0.00000    0.00000    0.00000    0.00000 ;     N1-    C2-   C15-   H14
    16      2     17     44      3    0.00000    0.00000    0.00000    0.00000    0.00000    0.00000 ;     N1-    C2-   C15-   H15
    17      2     16     42      3   20.92000    0.00000  -20.92000    0.00000    0.00000    0.00000 ;    C15-    C2-    N1-   H13
    17     18      4     19      3    0.65084    1.95253    0.00000   -2.60338    0.00000    0.00000 ;    C15-   C16-    C3-    O2
    17     18      4     33      3    0.65084    1.95253    0.00000   -2.60338    0.00000    0.00000 ;    C15-   C16-    C3-    H4
    17     18      4     34      3    0.65084    1.95253    0.00000   -2.60338    0.00000    0.00000 ;    C15-   C16-    C3-    H5
    17     18     21     22      3    2.84512   -4.10032   16.73600    2.51040  -16.73600    0.00000 ;    C15-   C16-    N2-   C17
    18     21     22     23      3   20.92000    0.00000  -20.92000    0.00000    0.00000    0.00000 ;    C16-    N2-   C17-    O3
    19      4     18     21      3    0.65084    1.95253    0.00000   -2.60338    0.00000    0.00000 ;     O2-    C3-   C16-    N2
    19      4     18     45      3    1.04600   -1.04600    0.00000    0.00000    0.00000    0.00000 ;     O2-    C3-   C16-   H16
    19      5      6     35      3   30.33400    0.00000  -30.33400    0.00000    0.00000    0.00000 ;     O2-    C4-    C5-    H6
    19      5     10     21      3   30.33400    0.00000  -30.33400    0.00000    0.00000    0.00000 ;     O2-    C4-    C9-    N2
    20      7      6     35      3   30.33400    0.00000  -30.33400    0.00000    0.00000    0.00000 ;     F1-    C6-    C5-    H6
    20      7      8     36      3   30.33400    0.00000  -30.33400    0.00000    0.00000    0.00000 ;     F1-    C6-    C7-    H7
    21     10      9     37      3   30.33400    0.00000  -30.33400    0.00000    0.00000    0.00000 ;     N2-    C9-    C8-    H8
    21     18      4     33      3    0.65084    1.95253    0.00000   -2.60338    0.00000    0.00000 ;     N2-   C16-    C3-    H4
    21     18      4     34      3    0.65084    1.95253    0.00000   -2.60338    0.00000    0.00000 ;     N2-   C16-    C3-    H5
    21     18     17     43      3    0.65084    1.95253    0.00000   -2.60338    0.00000    0.00000 ;     N2-   C16-   C15-   H14
    21     18     17     44      3    0.65084    1.95253    0.00000   -2.60338    0.00000    0.00000 ;     N2-   C16-   C15-   H15
    21     22     11     29      3    8.36800    0.00000   -8.36800    0.00000    0.00000    0.00000 ;     N2-   C17-   C10-   C20
    22     11     12     38      3   30.33400    0.00000  -30.33400    0.00000    0.00000    0.00000 ;    C17-   C10-   C11-    H9
    22     11     29     28      3   30.33400    0.00000  -30.33400    0.00000    0.00000    0.00000 ;    C17-   C10-   C20-   C19
    22     11     29     47      3   30.33400    0.00000  -30.33400    0.00000    0.00000    0.00000 ;    C17-   C10-   C20-   H18
    22     21     18     45      3    0.00000    0.00000    0.00000    0.00000    0.00000    0.00000 ;    C17-    N2-   C16-   H16
    23     22     11     29      3    8.36800    0.00000   -8.36800    0.00000    0.00000    0.00000 ;     O3-   C17-   C10-   C20
    24     14     13     39      3   30.33400    0.00000  -30.33400    0.00000    0.00000    0.00000 ;     O4-   C13-   C12-   H10
    24     14     28     27      3   30.33400    0.00000  -30.33400    0.00000    0.00000    0.00000 ;     O4-   C13-   C19-    N3
    24     14     28     29      3   30.33400    0.00000  -30.33400    0.00000    0.00000    0.00000 ;     O4-   C13-   C19-   C20
    24     15     25     26      3    0.00000    0.00000    0.00000    0.00000    0.00000    0.00000 ;     O4-   C14-   C18-    O5
    24     15     25     27      3    0.00000    0.00000    0.00000    0.00000    0.00000    0.00000 ;     O4-   C14-   C18-    N3
    25     27     28     29      3    3.76560    0.00000   -3.76560    0.00000    0.00000    0.00000 ;    C18-    N3-   C19-   C20
    26     25     15     40      3    3.68192   -4.35136    0.00000    1.33888    0.00000    0.00000 ;     O5-   C18-   C14-   H11
    26     25     15     41      3    3.68192   -4.35136    0.00000    1.33888    0.00000    0.00000 ;     O5-   C18-   C14-   H12
    26     25     27     28      3   20.92000    0.00000  -20.92000    0.00000    0.00000    0.00000 ;     O5-   C18-    N3-   C19
    26     25     27     46      3   29.28800   -8.36800  -20.92000    0.00000    0.00000    0.00000 ;     O5-   C18-    N3-   H17
    27     25     15     40      3    0.00000    0.00000    0.00000    0.00000    0.00000    0.00000 ;     N3-   C18-   C14-   H11
    27     25     15     41      3    0.00000    0.00000    0.00000    0.00000    0.00000    0.00000 ;     N3-   C18-   C14-   H12
    27     28     29     47      3   30.33400    0.00000  -30.33400    0.00000    0.00000    0.00000 ;     N3-   C19-   C20-   H18
    28     14     13     39      3   30.33400    0.00000  -30.33400    0.00000    0.00000    0.00000 ;    C19-   C13-   C12-   H10
    29     11     12     38      3   30.33400    0.00000  -30.33400    0.00000    0.00000    0.00000 ;    C20-   C10-   C11-    H9
    29     28     27     46      3    3.76560    0.00000   -3.76560    0.00000    0.00000    0.00000 ;    C20-   C19-    N3-   H17
    30      1     16      2      3    0.00000    0.00000    0.00000    0.00000    0.00000    0.00000 ;     H1-    C1-    N1-    C2
    30      1     16     42      3    0.00000    0.00000    0.00000    0.00000    0.00000    0.00000 ;     H1-    C1-    N1-   H13
    31      1     16      2      3    0.00000    0.00000    0.00000    0.00000    0.00000    0.00000 ;     H2-    C1-    N1-    C2
    31      1     16     42      3    0.00000    0.00000    0.00000    0.00000    0.00000    0.00000 ;     H2-    C1-    N1-   H13
    32      1     16      2      3    0.00000    0.00000    0.00000    0.00000    0.00000    0.00000 ;     H3-    C1-    N1-    C2
    32      1     16     42      3    0.00000    0.00000    0.00000    0.00000    0.00000    0.00000 ;     H3-    C1-    N1-   H13
    33      4     18     45      3    0.65084    1.95253    0.00000   -2.60338    0.00000    0.00000 ;     H4-    C3-   C16-   H16
    34      4     18     45      3    0.65084    1.95253    0.00000   -2.60338    0.00000    0.00000 ;     H5-    C3-   C16-   H16
    36      8      9     37      3   30.33400    0.00000  -30.33400    0.00000    0.00000    0.00000 ;     H7-    C7-    C8-    H8
    38     12     13     39      3   30.33400    0.00000  -30.33400    0.00000    0.00000    0.00000 ;     H9-   C11-   C12-   H10
    43     17     18     45      3    0.65084    1.95253    0.00000   -2.60338    0.00000    0.00000 ;    H14-   C15-   C16-   H16
    44     17     18     45      3    0.65084    1.95253    0.00000   -2.60338    0.00000    0.00000 ;    H15-   C15-   C16-   H16

[ dihedrals ] ; impropers
; treated as propers in GROMACS to use correct AMBER analytical function
;    I      j      k      l   func   phase     kd      pn
     2      1     16     42      1   180.00   4.60240   2 ;     C2-    C1-    N1-   H13
     5      7      6     35      1   180.00   4.60240   2 ;     C4-    C6-    C5-    H6
     5      9     10     21      1   180.00   4.60240   2 ;     C4-    C8-    C9-    N2
     6      8      7     20      1   180.00   4.60240   2 ;     C5-    C7-    C6-    F1
     6     10      5     19      1   180.00   4.60240   2 ;     C5-    C9-    C4-    O2
     7      9      8     36      1   180.00   4.60240   2 ;     C6-    C8-    C7-    H7
     8     10      9     37      1   180.00   4.60240   2 ;     C7-    C9-    C8-    H8
    11     13     12     38      1   180.00   4.60240   2 ;    C10-   C12-   C11-    H9
    11     21     22     23      1   180.00  43.93200   2 ;    C10-    N2-   C17-    O3
    11     28     29     47      1   180.00   4.60240   2 ;    C10-   C19-   C20-   H18
    12     14     13     39      1   180.00   4.60240   2 ;    C11-   C13-   C12-   H10
    13     28     14     24      1   180.00   4.60240   2 ;    C12-   C19-   C13-    O4
    14     29     28     27      1   180.00   4.60240   2 ;    C13-   C20-   C19-    N3
    15     27     25     26      1   180.00  43.93200   2 ;    C14-    N3-   C18-    O5
    17     16      2      3      1   180.00  43.93200   2 ;    C15-    N1-    C2-    O1
    22     12     11     29      1   180.00   4.60240   2 ;    C17-   C11-   C10-   C20
    22     18     21     10      1   180.00   4.60240   2 ;    C17-   C16-    N2-    C9
    25     28     27     46      1   180.00   4.60240   2 ;    C18-   C19-    N3-   H17

; Include Position restraint file
#ifdef POSRES
#include "posre_MOL.itp"
#endif
