
[ moleculetype ]
;name            nrexcl
 MOL              3

[ atoms ]
;   nr  type  resi  res  atom  cgnr     charge      mass       ; qtot   bond_type
     1   C3     1   MOL    C1    1    -0.303751     12.01000 ; qtot -0.304
     2   C3     1   MOL    C2    2     0.345074     12.01000 ; qtot 0.041
     3    N     1   MOL    N1    3    -0.786439     14.01000 ; qtot -0.745
     4    C     1   MOL    C3    4     0.956070     12.01000 ; qtot 0.211
     5    O     1   MOL    O1    5    -0.651233     16.00000 ; qtot -0.440
     6    N     1   MOL    N2    6    -0.685981     14.01000 ; qtot -1.126
     7   C3     1   MOL    C4    7    -0.070426     12.01000 ; qtot -1.197
     8   CA     1   MOL    C5    8     0.296285     12.01000 ; qtot -0.900
     9   CA     1   MOL    C6    9    -0.303931     12.01000 ; qtot -1.204
    10   CA     1   MOL    C7   10    -0.133215     12.01000 ; qtot -1.338
    11   CA     1   MOL    C8   11    -0.171218     12.01000 ; qtot -1.509
    12   CA     1   MOL    C9   12    -0.188173     12.01000 ; qtot -1.697
    13   CA     1   MOL   C10   13     0.021828     12.01000 ; qtot -1.675
    14   SS     1   MOL    S1   14    -0.211760     32.06000 ; qtot -1.887
    15   CC     1   MOL   C11   15     0.044325     12.01000 ; qtot -1.843
    16   CC     1   MOL   C12   16    -0.016088     12.01000 ; qtot -1.859
    17   CD     1   MOL   C13   17    -0.479717     12.01000 ; qtot -2.338
    18   CD     1   MOL   C14   18     0.592252     12.01000 ; qtot -1.746
    19   NC     1   MOL    N3   19    -0.474408     14.01000 ; qtot -2.221
    20   NC     1   MOL    N4   20    -0.311644     14.01000 ; qtot -2.532
    21   CD     1   MOL   C15   21     0.404251     12.01000 ; qtot -2.128
    22   C3     1   MOL   C16   22     0.045375     12.01000 ; qtot -2.083
    23   C3     1   MOL   C17   23    -0.524905     12.01000 ; qtot -2.607
    24   C3     1   MOL   C18   24    -0.524905     12.01000 ; qtot -3.132
    25   NA     1   MOL    N5   25    -0.058429     14.01000 ; qtot -3.191
    26   CD     1   MOL   C19   26    -0.242756     12.01000 ; qtot -3.434
    27   HC     1   MOL    H1   27     0.079963      1.00800 ; qtot -3.354
    28   HC     1   MOL    H2   28     0.079963      1.00800 ; qtot -3.274
    29   HC     1   MOL    H3   29     0.079963      1.00800 ; qtot -3.194
    30   H1     1   MOL    H4   30     0.007690      1.00800 ; qtot -3.186
    31   H1     1   MOL    H5   31     0.007690      1.00800 ; qtot -3.178
    32   HN     1   MOL    H6   32     0.342970      1.00800 ; qtot -2.835
    33   HN     1   MOL    H7   33     0.321120      1.00800 ; qtot -2.514
    34   H1     1   MOL    H8   34     0.118534      1.00800 ; qtot -2.396
    35   H1     1   MOL    H9   35     0.118534      1.00800 ; qtot -2.277
    36   HA     1   MOL   H10   36     0.171097      1.00800 ; qtot -2.106
    37   HA     1   MOL   H11   37     0.165134      1.00800 ; qtot -1.941
    38   HA     1   MOL   H12   38     0.158438      1.00800 ; qtot -1.782
    39   HA     1   MOL   H13   39     0.171268      1.00800 ; qtot -1.611
    40   HA     1   MOL   H14   40     0.155364      1.00800 ; qtot -1.456
    41   HA     1   MOL   H15   41     0.236780      1.00800 ; qtot -1.219
    42   HC     1   MOL   H16   42     0.075902      1.00800 ; qtot -1.143
    43   HC     1   MOL   H17   43     0.152659      1.00800 ; qtot -0.990
    44   HC     1   MOL   H18   44     0.152659      1.00800 ; qtot -0.838
    45   HC     1   MOL   H19   45     0.152659      1.00800 ; qtot -0.685
    46   HC     1   MOL   H20   46     0.152659      1.00800 ; qtot -0.532
    47   HC     1   MOL   H21   47     0.152659      1.00800 ; qtot -0.380
    48   HC     1   MOL   H22   48     0.152659      1.00800 ; qtot -0.227
    49   H4     1   MOL   H23   49     0.227152      1.00800 ; qtot -0.000

[ bonds ]
;   ai     aj funct   r             k
     1      2   1    1.5375e-01    2.5179e+05 ;     C1 - C2    
     1     27   1    1.0969e-01    2.7665e+05 ;     C1 - H1    
     1     28   1    1.0969e-01    2.7665e+05 ;     C1 - H2    
     1     29   1    1.0969e-01    2.7665e+05 ;     C1 - H3    
     2      3   1    1.4619e-01    2.7506e+05 ;     C2 - N1    
     2     30   1    1.0969e-01    2.7665e+05 ;     C2 - H4    
     2     31   1    1.0969e-01    2.7665e+05 ;     C2 - H5    
     3      4   1    1.3789e-01    3.5782e+05 ;     N1 - C3    
     3     32   1    1.0129e-01    3.3740e+05 ;     N1 - H6    
     4      5   1    1.2183e-01    5.3363e+05 ;     C3 - O1    
     4      6   1    1.3789e-01    3.5782e+05 ;     C3 - N2    
     6      7   1    1.4619e-01    2.7506e+05 ;     N2 - C4    
     6     33   1    1.0129e-01    3.3740e+05 ;     N2 - H7    
     7      8   1    1.5156e-01    2.6861e+05 ;     C4 - C5    
     7     34   1    1.0969e-01    2.7665e+05 ;     C4 - H8    
     7     35   1    1.0969e-01    2.7665e+05 ;     C4 - H9    
     8      9   1    1.3984e-01    3.8585e+05 ;     C5 - C6    
     8     13   1    1.3984e-01    3.8585e+05 ;     C5 - C10   
     9     10   1    1.3984e-01    3.8585e+05 ;     C6 - C7    
     9     36   1    1.0860e-01    2.8937e+05 ;     C6 - H10   
    10     11   1    1.3984e-01    3.8585e+05 ;     C7 - C8    
    10     37   1    1.0860e-01    2.8937e+05 ;     C7 - H11   
    11     12   1    1.3984e-01    3.8585e+05 ;     C8 - C9    
    11     38   1    1.0860e-01    2.8937e+05 ;     C8 - H12   
    12     13   1    1.3984e-01    3.8585e+05 ;     C9 - C10   
    12     39   1    1.0860e-01    2.8937e+05 ;     C9 - H13   
    13     14   1    1.7806e-01    2.0903e+05 ;    C10 - S1    
    14     15   1    1.7562e-01    2.2242e+05 ;     S1 - C11   
    15     16   1    1.4278e-01    3.5129e+05 ;    C11 - C12   
    15     26   1    1.3729e-01    4.1915e+05 ;    C11 - C19   
    16     17   1    1.3729e-01    4.1915e+05 ;    C12 - C13   
    16     40   1    1.0837e-01    2.9213e+05 ;    C12 - H14   
    17     18   1    1.4278e-01    3.5129e+05 ;    C13 - C14   
    17     41   1    1.0837e-01    2.9213e+05 ;    C13 - H15   
    18     19   1    1.3172e-01    4.3965e+05 ;    C14 - N3    
    18     25   1    1.3802e-01    3.5631e+05 ;    C14 - N5    
    19     20   1    1.3646e-01    4.2710e+05 ;     N3 - N4    
    20     21   1    1.3172e-01    4.3965e+05 ;     N4 - C15   
    21     22   1    1.5015e-01    2.8016e+05 ;    C15 - C16   
    21     25   1    1.3802e-01    3.5631e+05 ;    C15 - N5    
    22     23   1    1.5375e-01    2.5179e+05 ;    C16 - C17   
    22     24   1    1.5375e-01    2.5179e+05 ;    C16 - C18   
    22     42   1    1.0969e-01    2.7665e+05 ;    C16 - H16   
    23     43   1    1.0969e-01    2.7665e+05 ;    C17 - H17   
    23     44   1    1.0969e-01    2.7665e+05 ;    C17 - H18   
    23     45   1    1.0969e-01    2.7665e+05 ;    C17 - H19   
    24     46   1    1.0969e-01    2.7665e+05 ;    C18 - H20   
    24     47   1    1.0969e-01    2.7665e+05 ;    C18 - H21   
    24     48   1    1.0969e-01    2.7665e+05 ;    C18 - H22   
    25     26   1    1.3802e-01    3.5631e+05 ;     N5 - C19   
    26     49   1    1.0817e-01    2.9455e+05 ;    C19 - H23   

[ pairs ]
;   ai     aj    funct
     1      4      1 ;     C1 - C3    
     1     32      1 ;     C1 - H6    
     2      5      1 ;     C2 - O1    
     2      6      1 ;     C2 - N2    
     3      7      1 ;     N1 - C4    
     3     33      1 ;     N1 - H7    
     4      8      1 ;     C3 - C5    
     4     30      1 ;     C3 - H4    
     4     31      1 ;     C3 - H5    
     4     34      1 ;     C3 - H8    
     4     35      1 ;     C3 - H9    
     5      7      1 ;     O1 - C4    
     5     32      1 ;     O1 - H6    
     5     33      1 ;     O1 - H7    
     6      9      1 ;     N2 - C6    
     6     13      1 ;     N2 - C10   
     6     32      1 ;     N2 - H6    
     7     10      1 ;     C4 - C7    
     7     12      1 ;     C4 - C9    
     7     14      1 ;     C4 - S1    
     7     36      1 ;     C4 - H10   
     8     11      1 ;     C5 - C8    
     8     15      1 ;     C5 - C11   
     8     33      1 ;     C5 - H7    
     8     37      1 ;     C5 - H11   
     8     39      1 ;     C5 - H13   
     9     12      1 ;     C6 - C9    
     9     14      1 ;     C6 - S1    
     9     34      1 ;     C6 - H8    
     9     35      1 ;     C6 - H9    
     9     38      1 ;     C6 - H12   
    10     13      1 ;     C7 - C10   
    10     39      1 ;     C7 - H13   
    11     14      1 ;     C8 - S1    
    11     36      1 ;     C8 - H10   
    12     15      1 ;     C9 - C11   
    12     37      1 ;     C9 - H11   
    13     16      1 ;    C10 - C12   
    13     26      1 ;    C10 - C19   
    13     34      1 ;    C10 - H8    
    13     35      1 ;    C10 - H9    
    13     36      1 ;    C10 - H10   
    13     38      1 ;    C10 - H12   
    14     17      1 ;     S1 - C13   
    14     25      1 ;     S1 - N5    
    14     39      1 ;     S1 - H13   
    14     40      1 ;     S1 - H14   
    14     49      1 ;     S1 - H23   
    15     18      1 ;    C11 - C14   
    15     21      1 ;    C11 - C15   
    15     41      1 ;    C11 - H15   
    16     19      1 ;    C12 - N3    
    16     25      1 ;    C12 - N5    
    16     49      1 ;    C12 - H23   
    17     20      1 ;    C13 - N4    
    17     21      1 ;    C13 - C15   
    17     26      1 ;    C13 - C19   
    18     22      1 ;    C14 - C16   
    18     40      1 ;    C14 - H14   
    18     49      1 ;    C14 - H23   
    19     22      1 ;     N3 - C16   
    19     26      1 ;     N3 - C19   
    19     41      1 ;     N3 - H15   
    20     23      1 ;     N4 - C17   
    20     24      1 ;     N4 - C18   
    20     26      1 ;     N4 - C19   
    20     42      1 ;     N4 - H16   
    21     43      1 ;    C15 - H17   
    21     44      1 ;    C15 - H18   
    21     45      1 ;    C15 - H19   
    21     46      1 ;    C15 - H20   
    21     47      1 ;    C15 - H21   
    21     48      1 ;    C15 - H22   
    21     49      1 ;    C15 - H23   
    22     26      1 ;    C16 - C19   
    23     25      1 ;    C17 - N5    
    23     46      1 ;    C17 - H20   
    23     47      1 ;    C17 - H21   
    23     48      1 ;    C17 - H22   
    24     25      1 ;    C18 - N5    
    24     43      1 ;    C18 - H17   
    24     44      1 ;    C18 - H18   
    24     45      1 ;    C18 - H19   
    25     41      1 ;     N5 - H15   
    25     42      1 ;     N5 - H16   
    26     40      1 ;    C19 - H14   
    27      3      1 ;     H1 - N1    
    27     30      1 ;     H1 - H4    
    27     31      1 ;     H1 - H5    
    28      3      1 ;     H2 - N1    
    28     30      1 ;     H2 - H4    
    28     31      1 ;     H2 - H5    
    29      3      1 ;     H3 - N1    
    29     30      1 ;     H3 - H4    
    29     31      1 ;     H3 - H5    
    30     32      1 ;     H4 - H6    
    31     32      1 ;     H5 - H6    
    33     34      1 ;     H7 - H8    
    33     35      1 ;     H7 - H9    
    36     37      1 ;    H10 - H11   
    37     38      1 ;    H11 - H12   
    38     39      1 ;    H12 - H13   
    40     41      1 ;    H14 - H15   
    42     43      1 ;    H16 - H17   
    42     44      1 ;    H16 - H18   
    42     45      1 ;    H16 - H19   
    42     46      1 ;    H16 - H20   
    42     47      1 ;    H16 - H21   
    42     48      1 ;    H16 - H22   

[ angles ]
;   ai     aj     ak    funct   theta         cth
     1      2      3      1    1.1161e+02    5.5145e+02 ;     C1 - C2     - N1    
     1      2     30      1    1.0956e+02    3.8828e+02 ;     C1 - C2     - H4    
     1      2     31      1    1.0956e+02    3.8828e+02 ;     C1 - C2     - H5    
     2      1     27      1    1.0980e+02    3.8744e+02 ;     C2 - C1     - H1    
     2      1     28      1    1.0980e+02    3.8744e+02 ;     C2 - C1     - H2    
     2      1     29      1    1.0980e+02    3.8744e+02 ;     C2 - C1     - H3    
     2      3      4      1    1.2069e+02    5.3053e+02 ;     C2 - N1     - C3    
     2      3     32      1    1.1768e+02    3.8325e+02 ;     C2 - N1     - H6    
     3      2     30      1    1.0888e+02    4.1673e+02 ;     N1 - C2     - H4    
     3      2     31      1    1.0888e+02    4.1673e+02 ;     N1 - C2     - H5    
     3      4      5      1    1.2305e+02    6.2091e+02 ;     N1 - C3     - O1    
     3      4      6      1    1.1356e+02    6.1003e+02 ;     N1 - C3     - N2    
     4      3     32      1    1.1755e+02    4.0417e+02 ;     C3 - N1     - H6    
     4      6      7      1    1.2069e+02    5.3053e+02 ;     C3 - N2     - C4    
     4      6     33      1    1.1755e+02    4.0417e+02 ;     C3 - N2     - H7    
     5      4      6      1    1.2305e+02    6.2091e+02 ;     O1 - C3     - N2    
     6      7      8      1    1.1238e+02    5.5396e+02 ;     N2 - C4     - C5    
     6      7     34      1    1.0888e+02    4.1673e+02 ;     N2 - C4     - H8    
     6      7     35      1    1.0888e+02    4.1673e+02 ;     N2 - C4     - H9    
     7      6     33      1    1.1768e+02    3.8325e+02 ;     C4 - N2     - H7    
     7      8      9      1    1.2077e+02    5.3137e+02 ;     C4 - C5     - C6    
     7      8     13      1    1.2077e+02    5.3137e+02 ;     C4 - C5     - C10   
     8      7     34      1    1.0956e+02    3.9330e+02 ;     C5 - C4     - H8    
     8      7     35      1    1.0956e+02    3.9330e+02 ;     C5 - C4     - H9    
     8      9     10      1    1.2002e+02    5.5731e+02 ;     C5 - C6     - C7    
     8      9     36      1    1.1988e+02    4.0334e+02 ;     C5 - C6     - H10   
     8     13     12      1    1.2002e+02    5.5731e+02 ;     C5 - C10    - C9    
     8     13     14      1    1.2006e+02    5.1547e+02 ;     C5 - C10    - S1    
     9      8     13      1    1.2002e+02    5.5731e+02 ;     C6 - C5     - C10   
     9     10     11      1    1.2002e+02    5.5731e+02 ;     C6 - C7     - C8    
     9     10     37      1    1.1988e+02    4.0334e+02 ;     C6 - C7     - H11   
    10      9     36      1    1.1988e+02    4.0334e+02 ;     C7 - C6     - H10   
    10     11     12      1    1.2002e+02    5.5731e+02 ;     C7 - C8     - C9    
    10     11     38      1    1.1988e+02    4.0334e+02 ;     C7 - C8     - H12   
    11     10     37      1    1.1988e+02    4.0334e+02 ;     C8 - C7     - H11   
    11     12     13      1    1.2002e+02    5.5731e+02 ;     C8 - C9     - C10   
    11     12     39      1    1.1988e+02    4.0334e+02 ;     C8 - C9     - H13   
    12     11     38      1    1.1988e+02    4.0334e+02 ;     C9 - C8     - H12   
    12     13     14      1    1.2006e+02    5.1547e+02 ;     C9 - C10    - S1    
    13     12     39      1    1.1988e+02    4.0334e+02 ;    C10 - C9     - H13   
    13     14     15      1    8.9470e+01    5.5229e+02 ;    C10 - S1     - C11   
    14     15     16      1    1.2021e+02    5.1798e+02 ;     S1 - C11    - C12   
    14     15     26      1    1.1155e+02    5.4225e+02 ;     S1 - C11    - C19   
    15     16     17      1    1.1419e+02    5.7070e+02 ;    C11 - C12    - C13   
    15     16     40      1    1.2107e+02    3.9413e+02 ;    C11 - C12    - H14   
    15     26     25      1    1.0699e+02    6.1421e+02 ;    C11 - C19    - N5    
    15     26     49      1    1.2848e+02    3.9581e+02 ;    C11 - C19    - H23   
    16     15     26      1    1.1419e+02    5.7070e+02 ;    C12 - C11    - C19   
    16     17     18      1    1.1419e+02    5.7070e+02 ;    C12 - C13    - C14   
    16     17     41      1    1.2176e+02    4.0585e+02 ;    C12 - C13    - H15   
    17     16     40      1    1.2176e+02    4.0585e+02 ;    C13 - C12    - H14   
    17     18     19      1    1.1256e+02    5.9915e+02 ;    C13 - C14    - N3    
    17     18     25      1    1.1777e+02    5.7404e+02 ;    C13 - C14    - N5    
    18     17     41      1    1.2107e+02    3.9413e+02 ;    C14 - C13    - H15   
    18     19     20      1    1.0782e+02    6.1003e+02 ;    C14 - N3     - N4    
    18     25     21      1    1.0990e+02    5.7321e+02 ;    C14 - N5     - C15   
    18     25     26      1    1.0990e+02    5.7321e+02 ;    C14 - N5     - C19   
    19     18     25      1    1.1222e+02    6.2676e+02 ;     N3 - C14    - N5    
    19     20     21      1    1.0782e+02    6.1003e+02 ;     N3 - N4     - C15   
    20     21     22      1    1.2241e+02    5.5647e+02 ;     N4 - C15    - C16   
    20     21     25      1    1.1222e+02    6.2676e+02 ;     N4 - C15    - N5    
    21     22     23      1    1.1193e+02    5.3137e+02 ;    C15 - C16    - C17   
    21     22     24      1    1.1193e+02    5.3137e+02 ;    C15 - C16    - C18   
    21     22     42      1    1.1049e+02    3.9497e+02 ;    C15 - C16    - H16   
    21     25     26      1    1.0990e+02    5.7321e+02 ;    C15 - N5     - C19   
    22     21     25      1    1.2273e+02    5.4643e+02 ;    C16 - C15    - N5    
    22     23     43      1    1.0980e+02    3.8744e+02 ;    C16 - C17    - H17   
    22     23     44      1    1.0980e+02    3.8744e+02 ;    C16 - C17    - H18   
    22     23     45      1    1.0980e+02    3.8744e+02 ;    C16 - C17    - H19   
    22     24     46      1    1.0980e+02    3.8744e+02 ;    C16 - C18    - H20   
    22     24     47      1    1.0980e+02    3.8744e+02 ;    C16 - C18    - H21   
    22     24     48      1    1.0980e+02    3.8744e+02 ;    C16 - C18    - H22   
    23     22     24      1    1.1151e+02    5.2635e+02 ;    C17 - C16    - C18   
    23     22     42      1    1.0980e+02    3.8744e+02 ;    C17 - C16    - H16   
    24     22     42      1    1.0980e+02    3.8744e+02 ;    C18 - C16    - H16   
    25     26     49      1    1.2053e+02    4.1673e+02 ;     N5 - C19    - H23   
    27      1     28      1    1.0758e+02    3.2970e+02 ;     H1 - C1     - H2    
    27      1     29      1    1.0758e+02    3.2970e+02 ;     H1 - C1     - H3    
    28      1     29      1    1.0758e+02    3.2970e+02 ;     H2 - C1     - H3    
    30      2     31      1    1.0846e+02    3.2803e+02 ;     H4 - C2     - H5    
    34      7     35      1    1.0846e+02    3.2803e+02 ;     H8 - C4     - H9    
    43     23     44      1    1.0758e+02    3.2970e+02 ;    H17 - C17    - H18   
    43     23     45      1    1.0758e+02    3.2970e+02 ;    H17 - C17    - H19   
    44     23     45      1    1.0758e+02    3.2970e+02 ;    H18 - C17    - H19   
    46     24     47      1    1.0758e+02    3.2970e+02 ;    H20 - C18    - H21   
    46     24     48      1    1.0758e+02    3.2970e+02 ;    H20 - C18    - H22   
    47     24     48      1    1.0758e+02    3.2970e+02 ;    H21 - C18    - H22   

[ dihedrals ] ; propers
; treated as RBs in GROMACS to use combine multiple AMBER torsions per quartet
;    I      j      k      l   func    C0         C1         C2         C3         C4         C5
     1      2      3      4      3    2.84512   -4.10032   16.73600    2.51040  -16.73600    0.00000 ;     C1-    C2-    N1-    C3
     1      2      3     32      3    0.00000    0.00000    0.00000    0.00000    0.00000    0.00000 ;     C1-    C2-    N1-    H6
     2      3      4      5      3   20.92000    0.00000  -20.92000    0.00000    0.00000    0.00000 ;     C2-    N1-    C3-    O1
     2      3      4      6      3   20.92000    0.00000  -20.92000    0.00000    0.00000    0.00000 ;     C2-    N1-    C3-    N2
     3      4      6      7      3   20.92000    0.00000  -20.92000    0.00000    0.00000    0.00000 ;     N1-    C3-    N2-    C4
     3      4      6     33      3   20.92000    0.00000  -20.92000    0.00000    0.00000    0.00000 ;     N1-    C3-    N2-    H7
     4      3      2     30      3    0.00000    0.00000    0.00000    0.00000    0.00000    0.00000 ;     C3-    N1-    C2-    H4
     4      3      2     31      3    0.00000    0.00000    0.00000    0.00000    0.00000    0.00000 ;     C3-    N1-    C2-    H5
     4      6      7      8      3    0.00000    0.00000    0.00000    0.00000    0.00000    0.00000 ;     C3-    N2-    C4-    C5
     4      6      7     34      3    0.00000    0.00000    0.00000    0.00000    0.00000    0.00000 ;     C3-    N2-    C4-    H8
     4      6      7     35      3    0.00000    0.00000    0.00000    0.00000    0.00000    0.00000 ;     C3-    N2-    C4-    H9
     5      4      3     32      3   29.28800   -8.36800  -20.92000    0.00000    0.00000    0.00000 ;     O1-    C3-    N1-    H6
     5      4      6      7      3   20.92000    0.00000  -20.92000    0.00000    0.00000    0.00000 ;     O1-    C3-    N2-    C4
     5      4      6     33      3   29.28800   -8.36800  -20.92000    0.00000    0.00000    0.00000 ;     O1-    C3-    N2-    H7
     6      4      3     32      3   20.92000    0.00000  -20.92000    0.00000    0.00000    0.00000 ;     N2-    C3-    N1-    H6
     6      7      8      9      3    0.00000    0.00000    0.00000    0.00000    0.00000    0.00000 ;     N2-    C4-    C5-    C6
     6      7      8     13      3    0.00000    0.00000    0.00000    0.00000    0.00000    0.00000 ;     N2-    C4-    C5-   C10
     7      8      9     10      3   30.33400    0.00000  -30.33400    0.00000    0.00000    0.00000 ;     C4-    C5-    C6-    C7
     7      8      9     36      3   30.33400    0.00000  -30.33400    0.00000    0.00000    0.00000 ;     C4-    C5-    C6-   H10
     7      8     13     12      3   30.33400    0.00000  -30.33400    0.00000    0.00000    0.00000 ;     C4-    C5-   C10-    C9
     7      8     13     14      3   30.33400    0.00000  -30.33400    0.00000    0.00000    0.00000 ;     C4-    C5-   C10-    S1
     8      7      6     33      3    0.00000    0.00000    0.00000    0.00000    0.00000    0.00000 ;     C5-    C4-    N2-    H7
     8      9     10     11      3   30.33400    0.00000  -30.33400    0.00000    0.00000    0.00000 ;     C5-    C6-    C7-    C8
     8      9     10     37      3   30.33400    0.00000  -30.33400    0.00000    0.00000    0.00000 ;     C5-    C6-    C7-   H11
     8     13     12     11      3   30.33400    0.00000  -30.33400    0.00000    0.00000    0.00000 ;     C5-   C10-    C9-    C8
     8     13     12     39      3   30.33400    0.00000  -30.33400    0.00000    0.00000    0.00000 ;     C5-   C10-    C9-   H13
     8     13     14     15      3    3.34720    0.00000   -3.34720    0.00000    0.00000    0.00000 ;     C5-   C10-    S1-   C11
     9      8      7     34      3    0.00000    0.00000    0.00000    0.00000    0.00000    0.00000 ;     C6-    C5-    C4-    H8
     9      8      7     35      3    0.00000    0.00000    0.00000    0.00000    0.00000    0.00000 ;     C6-    C5-    C4-    H9
     9      8     13     12      3   30.33400    0.00000  -30.33400    0.00000    0.00000    0.00000 ;     C6-    C5-   C10-    C9
     9      8     13     14      3   30.33400    0.00000  -30.33400    0.00000    0.00000    0.00000 ;     C6-    C5-   C10-    S1
     9     10     11     12      3   30.33400    0.00000  -30.33400    0.00000    0.00000    0.00000 ;     C6-    C7-    C8-    C9
     9     10     11     38      3   30.33400    0.00000  -30.33400    0.00000    0.00000    0.00000 ;     C6-    C7-    C8-   H12
    10      9      8     13      3   30.33400    0.00000  -30.33400    0.00000    0.00000    0.00000 ;     C7-    C6-    C5-   C10
    10     11     12     13      3   30.33400    0.00000  -30.33400    0.00000    0.00000    0.00000 ;     C7-    C8-    C9-   C10
    10     11     12     39      3   30.33400    0.00000  -30.33400    0.00000    0.00000    0.00000 ;     C7-    C8-    C9-   H13
    11     10      9     36      3   30.33400    0.00000  -30.33400    0.00000    0.00000    0.00000 ;     C8-    C7-    C6-   H10
    11     12     13     14      3   30.33400    0.00000  -30.33400    0.00000    0.00000    0.00000 ;     C8-    C9-   C10-    S1
    12     11     10     37      3   30.33400    0.00000  -30.33400    0.00000    0.00000    0.00000 ;     C9-    C8-    C7-   H11
    12     13     14     15      3    3.34720    0.00000   -3.34720    0.00000    0.00000    0.00000 ;     C9-   C10-    S1-   C11
    13      8      7     34      3    0.00000    0.00000    0.00000    0.00000    0.00000    0.00000 ;    C10-    C5-    C4-    H8
    13      8      7     35      3    0.00000    0.00000    0.00000    0.00000    0.00000    0.00000 ;    C10-    C5-    C4-    H9
    13      8      9     36      3   30.33400    0.00000  -30.33400    0.00000    0.00000    0.00000 ;    C10-    C5-    C6-   H10
    13     12     11     38      3   30.33400    0.00000  -30.33400    0.00000    0.00000    0.00000 ;    C10-    C9-    C8-   H12
    13     14     15     16      3    9.20480    0.00000   -9.20480    0.00000    0.00000    0.00000 ;    C10-    S1-   C11-   C12
    13     14     15     26      3    9.20480    0.00000   -9.20480    0.00000    0.00000    0.00000 ;    C10-    S1-   C11-   C19
    14     13     12     39      3   30.33400    0.00000  -30.33400    0.00000    0.00000    0.00000 ;     S1-   C10-    C9-   H13
    14     15     16     17      3   33.47200    0.00000  -33.47200    0.00000    0.00000    0.00000 ;     S1-   C11-   C12-   C13
    14     15     16     40      3   33.47200    0.00000  -33.47200    0.00000    0.00000    0.00000 ;     S1-   C11-   C12-   H14
    14     15     26     25      3   33.47200    0.00000  -33.47200    0.00000    0.00000    0.00000 ;     S1-   C11-   C19-    N5
    14     15     26     49      3   33.47200    0.00000  -33.47200    0.00000    0.00000    0.00000 ;     S1-   C11-   C19-   H23
    15     16     17     18      3   33.47200    0.00000  -33.47200    0.00000    0.00000    0.00000 ;    C11-   C12-   C13-   C14
    15     16     17     41      3   33.47200    0.00000  -33.47200    0.00000    0.00000    0.00000 ;    C11-   C12-   C13-   H15
    15     26     25     18      3   14.22560    0.00000  -14.22560    0.00000    0.00000    0.00000 ;    C11-   C19-    N5-   C14
    15     26     25     21      3   14.22560    0.00000  -14.22560    0.00000    0.00000    0.00000 ;    C11-   C19-    N5-   C15
    16     15     26     25      3   33.47200    0.00000  -33.47200    0.00000    0.00000    0.00000 ;    C12-   C11-   C19-    N5
    16     15     26     49      3   33.47200    0.00000  -33.47200    0.00000    0.00000    0.00000 ;    C12-   C11-   C19-   H23
    16     17     18     19      3   33.47200    0.00000  -33.47200    0.00000    0.00000    0.00000 ;    C12-   C13-   C14-    N3
    16     17     18     25      3   33.47200    0.00000  -33.47200    0.00000    0.00000    0.00000 ;    C12-   C13-   C14-    N5
    17     16     15     26      3   33.47200    0.00000  -33.47200    0.00000    0.00000    0.00000 ;    C13-   C12-   C11-   C19
    17     18     19     20      3   39.74800    0.00000  -39.74800    0.00000    0.00000    0.00000 ;    C13-   C14-    N3-    N4
    17     18     25     21      3   14.22560    0.00000  -14.22560    0.00000    0.00000    0.00000 ;    C13-   C14-    N5-   C15
    17     18     25     26      3   14.22560    0.00000  -14.22560    0.00000    0.00000    0.00000 ;    C13-   C14-    N5-   C19
    18     17     16     40      3   33.47200    0.00000  -33.47200    0.00000    0.00000    0.00000 ;    C14-   C13-   C12-   H14
    18     19     20     21      3   33.47200    0.00000  -33.47200    0.00000    0.00000    0.00000 ;    C14-    N3-    N4-   C15
    18     25     21     20      3   14.22560    0.00000  -14.22560    0.00000    0.00000    0.00000 ;    C14-    N5-   C15-    N4
    18     25     21     22      3   14.22560    0.00000  -14.22560    0.00000    0.00000    0.00000 ;    C14-    N5-   C15-   C16
    18     25     26     49      3   14.22560    0.00000  -14.22560    0.00000    0.00000    0.00000 ;    C14-    N5-   C19-   H23
    19     18     17     41      3   33.47200    0.00000  -33.47200    0.00000    0.00000    0.00000 ;     N3-   C14-   C13-   H15
    19     18     25     21      3   14.22560    0.00000  -14.22560    0.00000    0.00000    0.00000 ;     N3-   C14-    N5-   C15
    19     18     25     26      3   14.22560    0.00000  -14.22560    0.00000    0.00000    0.00000 ;     N3-   C14-    N5-   C19
    19     20     21     22      3   39.74800    0.00000  -39.74800    0.00000    0.00000    0.00000 ;     N3-    N4-   C15-   C16
    19     20     21     25      3   39.74800    0.00000  -39.74800    0.00000    0.00000    0.00000 ;     N3-    N4-   C15-    N5
    20     19     18     25      3   39.74800    0.00000  -39.74800    0.00000    0.00000    0.00000 ;     N4-    N3-   C14-    N5
    20     21     22     23      3    0.00000    0.00000    0.00000    0.00000    0.00000    0.00000 ;     N4-   C15-   C16-   C17
    20     21     22     24      3    0.00000    0.00000    0.00000    0.00000    0.00000    0.00000 ;     N4-   C15-   C16-   C18
    20     21     22     42      3    0.00000    0.00000    0.00000    0.00000    0.00000    0.00000 ;     N4-   C15-   C16-   H16
    20     21     25     26      3   14.22560    0.00000  -14.22560    0.00000    0.00000    0.00000 ;     N4-   C15-    N5-   C19
    21     22     23     43      3    0.65084    1.95253    0.00000   -2.60338    0.00000    0.00000 ;    C15-   C16-   C17-   H17
    21     22     23     44      3    0.65084    1.95253    0.00000   -2.60338    0.00000    0.00000 ;    C15-   C16-   C17-   H18
    21     22     23     45      3    0.65084    1.95253    0.00000   -2.60338    0.00000    0.00000 ;    C15-   C16-   C17-   H19
    21     22     24     46      3    0.65084    1.95253    0.00000   -2.60338    0.00000    0.00000 ;    C15-   C16-   C18-   H20
    21     22     24     47      3    0.65084    1.95253    0.00000   -2.60338    0.00000    0.00000 ;    C15-   C16-   C18-   H21
    21     22     24     48      3    0.65084    1.95253    0.00000   -2.60338    0.00000    0.00000 ;    C15-   C16-   C18-   H22
    21     25     26     49      3   14.22560    0.00000  -14.22560    0.00000    0.00000    0.00000 ;    C15-    N5-   C19-   H23
    22     21     25     26      3   14.22560    0.00000  -14.22560    0.00000    0.00000    0.00000 ;    C16-   C15-    N5-   C19
    23     22     21     25      3    0.00000    0.00000    0.00000    0.00000    0.00000    0.00000 ;    C17-   C16-   C15-    N5
    23     22     24     46      3    0.66944    2.00832    0.00000   -2.67776    0.00000    0.00000 ;    C17-   C16-   C18-   H20
    23     22     24     47      3    0.66944    2.00832    0.00000   -2.67776    0.00000    0.00000 ;    C17-   C16-   C18-   H21
    23     22     24     48      3    0.66944    2.00832    0.00000   -2.67776    0.00000    0.00000 ;    C17-   C16-   C18-   H22
    24     22     21     25      3    0.00000    0.00000    0.00000    0.00000    0.00000    0.00000 ;    C18-   C16-   C15-    N5
    24     22     23     43      3    0.66944    2.00832    0.00000   -2.67776    0.00000    0.00000 ;    C18-   C16-   C17-   H17
    24     22     23     44      3    0.66944    2.00832    0.00000   -2.67776    0.00000    0.00000 ;    C18-   C16-   C17-   H18
    24     22     23     45      3    0.66944    2.00832    0.00000   -2.67776    0.00000    0.00000 ;    C18-   C16-   C17-   H19
    25     18     17     41      3   33.47200    0.00000  -33.47200    0.00000    0.00000    0.00000 ;     N5-   C14-   C13-   H15
    25     21     22     42      3    0.00000    0.00000    0.00000    0.00000    0.00000    0.00000 ;     N5-   C15-   C16-   H16
    26     15     16     40      3   33.47200    0.00000  -33.47200    0.00000    0.00000    0.00000 ;    C19-   C11-   C12-   H14
    27      1      2      3      3    0.65084    1.95253    0.00000   -2.60338    0.00000    0.00000 ;     H1-    C1-    C2-    N1
    27      1      2     30      3    0.65084    1.95253    0.00000   -2.60338    0.00000    0.00000 ;     H1-    C1-    C2-    H4
    27      1      2     31      3    0.65084    1.95253    0.00000   -2.60338    0.00000    0.00000 ;     H1-    C1-    C2-    H5
    28      1      2      3      3    0.65084    1.95253    0.00000   -2.60338    0.00000    0.00000 ;     H2-    C1-    C2-    N1
    28      1      2     30      3    0.65084    1.95253    0.00000   -2.60338    0.00000    0.00000 ;     H2-    C1-    C2-    H4
    28      1      2     31      3    0.65084    1.95253    0.00000   -2.60338    0.00000    0.00000 ;     H2-    C1-    C2-    H5
    29      1      2      3      3    0.65084    1.95253    0.00000   -2.60338    0.00000    0.00000 ;     H3-    C1-    C2-    N1
    29      1      2     30      3    0.65084    1.95253    0.00000   -2.60338    0.00000    0.00000 ;     H3-    C1-    C2-    H4
    29      1      2     31      3    0.65084    1.95253    0.00000   -2.60338    0.00000    0.00000 ;     H3-    C1-    C2-    H5
    30      2      3     32      3    0.00000    0.00000    0.00000    0.00000    0.00000    0.00000 ;     H4-    C2-    N1-    H6
    31      2      3     32      3    0.00000    0.00000    0.00000    0.00000    0.00000    0.00000 ;     H5-    C2-    N1-    H6
    33      6      7     34      3    0.00000    0.00000    0.00000    0.00000    0.00000    0.00000 ;     H7-    N2-    C4-    H8
    33      6      7     35      3    0.00000    0.00000    0.00000    0.00000    0.00000    0.00000 ;     H7-    N2-    C4-    H9
    36      9     10     37      3   30.33400    0.00000  -30.33400    0.00000    0.00000    0.00000 ;    H10-    C6-    C7-   H11
    37     10     11     38      3   30.33400    0.00000  -30.33400    0.00000    0.00000    0.00000 ;    H11-    C7-    C8-   H12
    38     11     12     39      3   30.33400    0.00000  -30.33400    0.00000    0.00000    0.00000 ;    H12-    C8-    C9-   H13
    40     16     17     41      3   33.47200    0.00000  -33.47200    0.00000    0.00000    0.00000 ;    H14-   C12-   C13-   H15
    42     22     23     43      3    0.62760    1.88280    0.00000   -2.51040    0.00000    0.00000 ;    H16-   C16-   C17-   H17
    42     22     23     44      3    0.62760    1.88280    0.00000   -2.51040    0.00000    0.00000 ;    H16-   C16-   C17-   H18
    42     22     23     45      3    0.62760    1.88280    0.00000   -2.51040    0.00000    0.00000 ;    H16-   C16-   C17-   H19
    42     22     24     46      3    0.62760    1.88280    0.00000   -2.51040    0.00000    0.00000 ;    H16-   C16-   C18-   H20
    42     22     24     47      3    0.62760    1.88280    0.00000   -2.51040    0.00000    0.00000 ;    H16-   C16-   C18-   H21
    42     22     24     48      3    0.62760    1.88280    0.00000   -2.51040    0.00000    0.00000 ;    H16-   C16-   C18-   H22

[ dihedrals ] ; impropers
; treated as propers in GROMACS to use correct AMBER analytical function
;    I      j      k      l   func   phase     kd      pn
     3      6      4      5      1   180.00  43.93200   2 ;     N1-    N2-    C3-    O1
     4      2      3     32      1   180.00   4.60240   2 ;     C3-    C2-    N1-    H6
     4      7      6     33      1   180.00   4.60240   2 ;     C3-    C4-    N2-    H7
     8     10      9     36      1   180.00   4.60240   2 ;     C5-    C7-    C6-   H10
     8     12     13     14      1   180.00   4.60240   2 ;     C5-    C9-   C10-    S1
     9     11     10     37      1   180.00   4.60240   2 ;     C6-    C8-    C7-   H11
     9     13      8      7      1   180.00   4.60240   2 ;     C6-   C10-    C5-    C4
    10     12     11     38      1   180.00   4.60240   2 ;     C7-    C9-    C8-   H12
    11     13     12     39      1   180.00   4.60240   2 ;     C8-   C10-    C9-   H13
    15     17     16     40      1   180.00   4.60240   2 ;    C11-   C13-   C12-   H14
    15     49     26     25      1   180.00   4.60240   2 ;    C11-   H23-   C19-    N5
    16     18     17     41      1   180.00   4.60240   2 ;    C12-   C14-   C13-   H15
    16     26     15     14      1   180.00   4.60240   2 ;    C12-   C19-   C11-    S1
    17     25     18     19      1   180.00   4.60240   2 ;    C13-    N5-   C14-    N3
    18     21     25     26      1   180.00   4.60240   2 ;    C14-   C15-    N5-   C19
    22     25     21     20      1   180.00   4.60240   2 ;    C16-    N5-   C15-    N4

; Include Position restraint file
#ifdef POSRES
#include "posre_MOL.itp"
#endif
