
[ moleculetype ]
;name            nrexcl
 MOL              3

[ atoms ]
;   nr  type  resi  res  atom  cgnr     charge      mass       ; qtot   bond_type
     1   C3     1   MOL    C1    1     0.620648     12.01000 ; qtot 0.621
     2   CA     1   MOL    C2    2    -0.007308     12.01000 ; qtot 0.613
     3   CA     1   MOL    C3    3    -0.311862     12.01000 ; qtot 0.301
     4   CA     1   MOL    C4    4     0.432109     12.01000 ; qtot 0.734
     5   CA     1   MOL    C5    5    -0.214560     12.01000 ; qtot 0.519
     6    C     1   MOL    C6    6     1.268689     12.01000 ; qtot 1.788
     7   CC     1   MOL    C7    7     0.733547     12.01000 ; qtot 2.521
     8   CC     1   MOL    C8    8     0.405274     12.01000 ; qtot 2.927
     9   CC     1   MOL    C9    9     0.771287     12.01000 ; qtot 3.698
    10   NC     1   MOL    N1   10    -0.759108     14.01000 ; qtot 2.939
    11   CD     1   MOL   C10   11     0.689974     12.01000 ; qtot 3.629
    12   CD     1   MOL   C11   12    -0.391469     12.01000 ; qtot 3.237
    13   C3     1   MOL   C12   13    -0.376810     12.01000 ; qtot 2.860
    14    C     1   MOL   C13   14     0.937911     12.01000 ; qtot 3.798
    15   CD     1   MOL   C14   15    -0.930641     12.01000 ; qtot 2.868
    16    F     1   MOL    F1   16    -0.215381     19.00000 ; qtot 2.652
    17    F     1   MOL    F2   17    -0.215381     19.00000 ; qtot 2.437
    18    F     1   MOL    F3   18    -0.215381     19.00000 ; qtot 2.222
    19   CA     1   MOL   C15   19    -0.156527     12.01000 ; qtot 2.065
    20   CA     1   MOL   C16   20    -0.148055     12.01000 ; qtot 1.917
    21    N     1   MOL    N2   21    -0.934060     14.01000 ; qtot 0.983
    22    O     1   MOL    O1   22    -0.668157     16.00000 ; qtot 0.315
    23    N     1   MOL    N3   23    -1.025427     14.01000 ; qtot -0.711
    24   ND     1   MOL    N4   24    -0.396987     14.01000 ; qtot -1.108
    25   ND     1   MOL    N5   25    -0.304278     14.01000 ; qtot -1.412
    26   SS     1   MOL    S1   26    -0.229140     32.06000 ; qtot -1.641
    27   C3     1   MOL   C17   27    -0.223734     12.01000 ; qtot -1.865
    28   CC     1   MOL   C18   28    -0.117739     12.01000 ; qtot -1.983
    29   CC     1   MOL   C19   29     0.198060     12.01000 ; qtot -1.785
    30   CD     1   MOL   C20   30    -0.177941     12.01000 ; qtot -1.962
    31    N     1   MOL    N6   31    -0.250638     14.01000 ; qtot -2.213
    32    O     1   MOL    O2   32    -0.668225     16.00000 ; qtot -2.881
    33   SS     1   MOL    S2   33    -0.164188     32.06000 ; qtot -3.046
    34   HA     1   MOL    H1   34     0.217061      1.00800 ; qtot -2.828
    35   HA     1   MOL    H2   35     0.156317      1.00800 ; qtot -2.672
    36   HA     1   MOL    H3   36     0.219520      1.00800 ; qtot -2.453
    37   HC     1   MOL    H4   37     0.115799      1.00800 ; qtot -2.337
    38   HC     1   MOL    H5   38     0.115799      1.00800 ; qtot -2.221
    39   HC     1   MOL    H6   39     0.115799      1.00800 ; qtot -2.105
    40   HA     1   MOL    H7   40     0.269615      1.00800 ; qtot -1.836
    41   HA     1   MOL    H8   41     0.160168      1.00800 ; qtot -1.675
    42   HA     1   MOL    H9   42     0.151313      1.00800 ; qtot -1.524
    43   HN     1   MOL   H10   43     0.422160      1.00800 ; qtot -1.102
    44   HN     1   MOL   H11   44     0.430248      1.00800 ; qtot -0.672
    45   H1     1   MOL   H12   45     0.140203      1.00800 ; qtot -0.531
    46   H1     1   MOL   H13   46     0.140203      1.00800 ; qtot -0.391
    47   HA     1   MOL   H14   47     0.180281      1.00800 ; qtot -0.211
    48   H4     1   MOL   H15   48     0.211012      1.00800 ; qtot 0.000

[ bonds ]
;   ai     aj funct   r             k
     1      2   1    1.5156e-01    2.6861e+05 ;     C1 - C2    
     1     16   1    1.3497e-01    2.9865e+05 ;     C1 - F1    
     1     17   1    1.3497e-01    2.9865e+05 ;     C1 - F2    
     1     18   1    1.3497e-01    2.9865e+05 ;     C1 - F3    
     2      3   1    1.3984e-01    3.8585e+05 ;     C2 - C3    
     2     20   1    1.3984e-01    3.8585e+05 ;     C2 - C16   
     3      4   1    1.3984e-01    3.8585e+05 ;     C3 - C4    
     3     34   1    1.0860e-01    2.8937e+05 ;     C3 - H1    
     4      5   1    1.3984e-01    3.8585e+05 ;     C4 - C5    
     4     21   1    1.4121e-01    3.2150e+05 ;     C4 - N2    
     5     19   1    1.3984e-01    3.8585e+05 ;     C5 - C15   
     5     35   1    1.0860e-01    2.8937e+05 ;     C5 - H2    
     6     21   1    1.3789e-01    3.5782e+05 ;     C6 - N2    
     6     22   1    1.2183e-01    5.3363e+05 ;     C6 - O1    
     6     23   1    1.3789e-01    3.5782e+05 ;     C6 - N3    
     7     23   1    1.3807e-01    3.5572e+05 ;     C7 - N3    
     7     24   1    1.3172e-01    4.3965e+05 ;     C7 - N4    
     7     33   1    1.7562e-01    2.2242e+05 ;     C7 - S2    
     8     25   1    1.3172e-01    4.3965e+05 ;     C8 - N5    
     8     26   1    1.7562e-01    2.2242e+05 ;     C8 - S1    
     8     33   1    1.7562e-01    2.2242e+05 ;     C8 - S2    
     9     10   1    1.3694e-01    3.6911e+05 ;     C9 - N1    
     9     15   1    1.3729e-01    4.1915e+05 ;     C9 - C14   
     9     27   1    1.5015e-01    2.8016e+05 ;     C9 - C17   
    10     11   1    1.3172e-01    4.3965e+05 ;     N1 - C10   
    11     12   1    1.4278e-01    3.5129e+05 ;    C10 - C11   
    11     31   1    1.3807e-01    3.5572e+05 ;    C10 - N6    
    12     28   1    1.3729e-01    4.1915e+05 ;    C11 - C18   
    12     36   1    1.0837e-01    2.9213e+05 ;    C11 - H3    
    13     29   1    1.5015e-01    2.8016e+05 ;    C12 - C19   
    13     37   1    1.0969e-01    2.7665e+05 ;    C12 - H4    
    13     38   1    1.0969e-01    2.7665e+05 ;    C12 - H5    
    13     39   1    1.0969e-01    2.7665e+05 ;    C12 - H6    
    14     15   1    1.4676e-01    3.1045e+05 ;    C13 - C14   
    14     31   1    1.3789e-01    3.5782e+05 ;    C13 - N6    
    14     32   1    1.2183e-01    5.3363e+05 ;    C13 - O2    
    15     40   1    1.0837e-01    2.9213e+05 ;    C14 - H7    
    19     20   1    1.3984e-01    3.8585e+05 ;    C15 - C16   
    19     41   1    1.0860e-01    2.8937e+05 ;    C15 - H8    
    20     42   1    1.0860e-01    2.8937e+05 ;    C16 - H9    
    21     43   1    1.0129e-01    3.3740e+05 ;     N2 - H10   
    23     44   1    1.0129e-01    3.3740e+05 ;     N3 - H11   
    24     25   1    1.3646e-01    4.2710e+05 ;     N4 - N5    
    26     27   1    1.8392e-01    1.8067e+05 ;     S1 - C17   
    27     45   1    1.0969e-01    2.7665e+05 ;    C17 - H12   
    27     46   1    1.0969e-01    2.7665e+05 ;    C17 - H13   
    28     29   1    1.4278e-01    3.5129e+05 ;    C18 - C19   
    28     47   1    1.0837e-01    2.9213e+05 ;    C18 - H14   
    29     30   1    1.3729e-01    4.1915e+05 ;    C19 - C20   
    30     31   1    1.3807e-01    3.5572e+05 ;    C20 - N6    
    30     48   1    1.0817e-01    2.9455e+05 ;    C20 - H15   

[ pairs ]
;   ai     aj    funct
     1      4      1 ;     C1 - C4    
     1     19      1 ;     C1 - C15   
     1     34      1 ;     C1 - H1    
     1     42      1 ;     C1 - H9    
     2      5      1 ;     C2 - C5    
     2     21      1 ;     C2 - N2    
     2     41      1 ;     C2 - H8    
     3      6      1 ;     C3 - C6    
     3     19      1 ;     C3 - C15   
     3     35      1 ;     C3 - H2    
     3     42      1 ;     C3 - H9    
     3     43      1 ;     C3 - H10   
     4     20      1 ;     C4 - C16   
     4     22      1 ;     C4 - O1    
     4     23      1 ;     C4 - N3    
     4     41      1 ;     C4 - H8    
     5      6      1 ;     C5 - C6    
     5     34      1 ;     C5 - H1    
     5     42      1 ;     C5 - H9    
     5     43      1 ;     C5 - H10   
     6     24      1 ;     C6 - N4    
     6     33      1 ;     C6 - S2    
     7     21      1 ;     C7 - N2    
     7     22      1 ;     C7 - O1    
     7     26      1 ;     C7 - S1    
     8      9      1 ;     C8 - C9    
     8     23      1 ;     C8 - N3    
     8     45      1 ;     C8 - H12   
     8     46      1 ;     C8 - H13   
     9     12      1 ;     C9 - C11   
     9     31      1 ;     C9 - N6    
     9     32      1 ;     C9 - O2    
    10     14      1 ;     N1 - C13   
    10     26      1 ;     N1 - S1    
    10     28      1 ;     N1 - C18   
    10     30      1 ;     N1 - C20   
    10     36      1 ;     N1 - H3    
    10     40      1 ;     N1 - H7    
    10     45      1 ;     N1 - H12   
    10     46      1 ;     N1 - H13   
    11     15      1 ;    C10 - C14   
    11     27      1 ;    C10 - C17   
    11     29      1 ;    C10 - C19   
    11     32      1 ;    C10 - O2    
    11     47      1 ;    C10 - H14   
    11     48      1 ;    C10 - H15   
    12     13      1 ;    C11 - C12   
    12     14      1 ;    C11 - C13   
    12     30      1 ;    C11 - C20   
    13     31      1 ;    C12 - N6    
    13     47      1 ;    C12 - H14   
    13     48      1 ;    C12 - H15   
    14     27      1 ;    C13 - C17   
    14     29      1 ;    C13 - C19   
    14     48      1 ;    C13 - H15   
    15     26      1 ;    C14 - S1    
    15     30      1 ;    C14 - C20   
    15     45      1 ;    C14 - H12   
    15     46      1 ;    C14 - H13   
    16      3      1 ;     F1 - C3    
    16     20      1 ;     F1 - C16   
    17      3      1 ;     F2 - C3    
    17     20      1 ;     F2 - C16   
    18      3      1 ;     F3 - C3    
    18     20      1 ;     F3 - C16   
    19     21      1 ;    C15 - N2    
    20     34      1 ;    C16 - H1    
    20     35      1 ;    C16 - H2    
    21     34      1 ;     N2 - H1    
    21     35      1 ;     N2 - H2    
    21     44      1 ;     N2 - H11   
    22     43      1 ;     O1 - H10   
    22     44      1 ;     O1 - H11   
    23     25      1 ;     N3 - N5    
    23     43      1 ;     N3 - H10   
    24     26      1 ;     N4 - S1    
    24     44      1 ;     N4 - H11   
    25     27      1 ;     N5 - C17   
    27     33      1 ;    C17 - S2    
    27     40      1 ;    C17 - H7    
    28     31      1 ;    C18 - N6    
    28     37      1 ;    C18 - H4    
    28     38      1 ;    C18 - H5    
    28     39      1 ;    C18 - H6    
    28     48      1 ;    C18 - H15   
    29     36      1 ;    C19 - H3    
    30     32      1 ;    C20 - O2    
    30     37      1 ;    C20 - H4    
    30     38      1 ;    C20 - H5    
    30     39      1 ;    C20 - H6    
    30     47      1 ;    C20 - H14   
    31     36      1 ;     N6 - H3    
    31     40      1 ;     N6 - H7    
    32     40      1 ;     O2 - H7    
    33     44      1 ;     S2 - H11   
    35     41      1 ;     H2 - H8    
    36     47      1 ;     H3 - H14   
    41     42      1 ;     H8 - H9    

[ angles ]
;   ai     aj     ak    funct   theta         cth
     1      2      3      1    1.2077e+02    5.3137e+02 ;     C1 - C2     - C3    
     1      2     20      1    1.2077e+02    5.3137e+02 ;     C1 - C2     - C16   
     2      1     16      1    1.1177e+02    5.5229e+02 ;     C2 - C1     - F1    
     2      1     17      1    1.1177e+02    5.5229e+02 ;     C2 - C1     - F2    
     2      1     18      1    1.1177e+02    5.5229e+02 ;     C2 - C1     - F3    
     2      3      4      1    1.2002e+02    5.5731e+02 ;     C2 - C3     - C4    
     2      3     34      1    1.1988e+02    4.0334e+02 ;     C2 - C3     - H1    
     2     20     19      1    1.2002e+02    5.5731e+02 ;     C2 - C16    - C15   
     2     20     42      1    1.1988e+02    4.0334e+02 ;     C2 - C16    - H9    
     3      2     20      1    1.2002e+02    5.5731e+02 ;     C3 - C2     - C16   
     3      4      5      1    1.2002e+02    5.5731e+02 ;     C3 - C4     - C5    
     3      4     21      1    1.2019e+02    5.6819e+02 ;     C3 - C4     - N2    
     4      3     34      1    1.1988e+02    4.0334e+02 ;     C4 - C3     - H1    
     4      5     19      1    1.2002e+02    5.5731e+02 ;     C4 - C5     - C15   
     4      5     35      1    1.1988e+02    4.0334e+02 ;     C4 - C5     - H2    
     4     21      6      1    1.2371e+02    5.3388e+02 ;     C4 - N2     - C6    
     4     21     43      1    1.1600e+02    3.9832e+02 ;     C4 - N2     - H10   
     5      4     21      1    1.2019e+02    5.6819e+02 ;     C5 - C4     - N2    
     5     19     20      1    1.2002e+02    5.5731e+02 ;     C5 - C15    - C16   
     5     19     41      1    1.1988e+02    4.0334e+02 ;     C5 - C15    - H8    
     6     21     43      1    1.1755e+02    4.0417e+02 ;     C6 - N2     - H10   
     6     23      7      1    1.2327e+02    5.4141e+02 ;     C6 - N3     - C7    
     6     23     44      1    1.1755e+02    4.0417e+02 ;     C6 - N3     - H11   
     7     23     44      1    1.1926e+02    4.0083e+02 ;     C7 - N3     - H11   
     7     24     25      1    1.0782e+02    6.1003e+02 ;     C7 - N4     - N5    
     7     33      8      1    9.0240e+01    5.5396e+02 ;     C7 - S2     - C8    
     8     25     24      1    1.0782e+02    6.1003e+02 ;     C8 - N5     - N4    
     8     26     27      1    1.0064e+02    5.1128e+02 ;     C8 - S1     - C17   
     9     10     11      1    1.0549e+02    6.0082e+02 ;     C9 - N1     - C10   
     9     15     14      1    1.2135e+02    5.4476e+02 ;     C9 - C14    - C13   
     9     15     40      1    1.2176e+02    4.0585e+02 ;     C9 - C14    - H7    
     9     27     26      1    1.1116e+02    5.1380e+02 ;     C9 - C17    - S1    
     9     27     45      1    1.0964e+02    3.9664e+02 ;     C9 - C17    - H12   
     9     27     46      1    1.0964e+02    3.9664e+02 ;     C9 - C17    - H13   
    10      9     15      1    1.1165e+02    6.0417e+02 ;     N1 - C9     - C14   
    10      9     27      1    1.2095e+02    5.5229e+02 ;     N1 - C9     - C17   
    10     11     12      1    1.1256e+02    5.9915e+02 ;     N1 - C10    - C11   
    10     11     31      1    1.2300e+02    5.9831e+02 ;     N1 - C10    - N6    
    11     12     28      1    1.1419e+02    5.7070e+02 ;    C10 - C11    - C18   
    11     12     36      1    1.2107e+02    3.9413e+02 ;    C10 - C11    - H3    
    11     31     14      1    1.2327e+02    5.4141e+02 ;    C10 - N6     - C13   
    11     31     30      1    1.0892e+02    5.7572e+02 ;    C10 - N6     - C20   
    12     11     31      1    1.1989e+02    5.6902e+02 ;    C11 - C10    - N6    
    12     28     29      1    1.1419e+02    5.7070e+02 ;    C11 - C18    - C19   
    12     28     47      1    1.2176e+02    4.0585e+02 ;    C11 - C18    - H14   
    13     29     28      1    1.1597e+02    5.4057e+02 ;    C12 - C19    - C18   
    13     29     30      1    1.1945e+02    5.4141e+02 ;    C12 - C19    - C20   
    14     15     40      1    1.1664e+02    3.9246e+02 ;    C13 - C14    - H7    
    14     31     30      1    1.2327e+02    5.4141e+02 ;    C13 - N6     - C20   
    15      9     27      1    1.1945e+02    5.4141e+02 ;    C14 - C9     - C17   
    15     14     31      1    1.1270e+02    5.7823e+02 ;    C14 - C13    - N6    
    15     14     32      1    1.2393e+02    5.7823e+02 ;    C14 - C13    - O2    
    16      1     17      1    1.0736e+02    5.9329e+02 ;     F1 - C1     - F2    
    16      1     18      1    1.0736e+02    5.9329e+02 ;     F1 - C1     - F3    
    17      1     18      1    1.0736e+02    5.9329e+02 ;     F2 - C1     - F3    
    19      5     35      1    1.1988e+02    4.0334e+02 ;    C15 - C5     - H2    
    19     20     42      1    1.1988e+02    4.0334e+02 ;    C15 - C16    - H9    
    20     19     41      1    1.1988e+02    4.0334e+02 ;    C16 - C15    - H8    
    21      6     22      1    1.2305e+02    6.2091e+02 ;     N2 - C6     - O1    
    21      6     23      1    1.1356e+02    6.1003e+02 ;     N2 - C6     - N3    
    22      6     23      1    1.2305e+02    6.2091e+02 ;     O1 - C6     - N3    
    23      7     24      1    1.2300e+02    5.9831e+02 ;     N3 - C7     - N4    
    23      7     33      1    1.2288e+02    5.2886e+02 ;     N3 - C7     - S2    
    24      7     33      1    1.1451e+02    5.5229e+02 ;     N4 - C7     - S2    
    25      8     26      1    1.1451e+02    5.5229e+02 ;     N5 - C8     - S1    
    25      8     33      1    1.1451e+02    5.5229e+02 ;     N5 - C8     - S2    
    26      8     33      1    1.2137e+02    5.1714e+02 ;     S1 - C8     - S2    
    26     27     45      1    1.0876e+02    3.5229e+02 ;     S1 - C17    - H12   
    26     27     46      1    1.0876e+02    3.5229e+02 ;     S1 - C17    - H13   
    28     12     36      1    1.2176e+02    4.0585e+02 ;    C18 - C11    - H3    
    28     29     30      1    1.1419e+02    5.7070e+02 ;    C18 - C19    - C20   
    29     13     37      1    1.1049e+02    3.9497e+02 ;    C19 - C12    - H4    
    29     13     38      1    1.1049e+02    3.9497e+02 ;    C19 - C12    - H5    
    29     13     39      1    1.1049e+02    3.9497e+02 ;    C19 - C12    - H6    
    29     28     47      1    1.2107e+02    3.9413e+02 ;    C19 - C18    - H14   
    29     30     31      1    1.2133e+02    5.7656e+02 ;    C19 - C20    - N6    
    29     30     48      1    1.2848e+02    3.9581e+02 ;    C19 - C20    - H15   
    31     14     32      1    1.2305e+02    6.2091e+02 ;     N6 - C13    - O2    
    31     30     48      1    1.1569e+02    4.2509e+02 ;     N6 - C20    - H15   
    37     13     38      1    1.0758e+02    3.2970e+02 ;     H4 - C12    - H5    
    37     13     39      1    1.0758e+02    3.2970e+02 ;     H4 - C12    - H6    
    38     13     39      1    1.0758e+02    3.2970e+02 ;     H5 - C12    - H6    
    45     27     46      1    1.0846e+02    3.2803e+02 ;    H12 - C17    - H13   

[ dihedrals ] ; propers
; treated as RBs in GROMACS to use combine multiple AMBER torsions per quartet
;    I      j      k      l   func    C0         C1         C2         C3         C4         C5
     1      2      3      4      3   30.33400    0.00000  -30.33400    0.00000    0.00000    0.00000 ;     C1-    C2-    C3-    C4
     1      2      3     34      3   30.33400    0.00000  -30.33400    0.00000    0.00000    0.00000 ;     C1-    C2-    C3-    H1
     1      2     20     19      3   30.33400    0.00000  -30.33400    0.00000    0.00000    0.00000 ;     C1-    C2-   C16-   C15
     1      2     20     42      3   30.33400    0.00000  -30.33400    0.00000    0.00000    0.00000 ;     C1-    C2-   C16-    H9
     2      3      4      5      3   30.33400    0.00000  -30.33400    0.00000    0.00000    0.00000 ;     C2-    C3-    C4-    C5
     2      3      4     21      3   30.33400    0.00000  -30.33400    0.00000    0.00000    0.00000 ;     C2-    C3-    C4-    N2
     2     20     19      5      3   30.33400    0.00000  -30.33400    0.00000    0.00000    0.00000 ;     C2-   C16-   C15-    C5
     2     20     19     41      3   30.33400    0.00000  -30.33400    0.00000    0.00000    0.00000 ;     C2-   C16-   C15-    H8
     3      2     20     19      3   30.33400    0.00000  -30.33400    0.00000    0.00000    0.00000 ;     C3-    C2-   C16-   C15
     3      2     20     42      3   30.33400    0.00000  -30.33400    0.00000    0.00000    0.00000 ;     C3-    C2-   C16-    H9
     3      4      5     19      3   30.33400    0.00000  -30.33400    0.00000    0.00000    0.00000 ;     C3-    C4-    C5-   C15
     3      4      5     35      3   30.33400    0.00000  -30.33400    0.00000    0.00000    0.00000 ;     C3-    C4-    C5-    H2
     3      4     21      6      3    3.76560    0.00000   -3.76560    0.00000    0.00000    0.00000 ;     C3-    C4-    N2-    C6
     3      4     21     43      3    3.76560    0.00000   -3.76560    0.00000    0.00000    0.00000 ;     C3-    C4-    N2-   H10
     4      3      2     20      3   30.33400    0.00000  -30.33400    0.00000    0.00000    0.00000 ;     C4-    C3-    C2-   C16
     4      5     19     20      3   30.33400    0.00000  -30.33400    0.00000    0.00000    0.00000 ;     C4-    C5-   C15-   C16
     4      5     19     41      3   30.33400    0.00000  -30.33400    0.00000    0.00000    0.00000 ;     C4-    C5-   C15-    H8
     4     21      6     22      3   20.92000    0.00000  -20.92000    0.00000    0.00000    0.00000 ;     C4-    N2-    C6-    O1
     4     21      6     23      3   20.92000    0.00000  -20.92000    0.00000    0.00000    0.00000 ;     C4-    N2-    C6-    N3
     5      4      3     34      3   30.33400    0.00000  -30.33400    0.00000    0.00000    0.00000 ;     C5-    C4-    C3-    H1
     5      4     21      6      3    3.76560    0.00000   -3.76560    0.00000    0.00000    0.00000 ;     C5-    C4-    N2-    C6
     5      4     21     43      3    3.76560    0.00000   -3.76560    0.00000    0.00000    0.00000 ;     C5-    C4-    N2-   H10
     5     19     20     42      3   30.33400    0.00000  -30.33400    0.00000    0.00000    0.00000 ;     C5-   C15-   C16-    H9
     6     23      7     24      3   13.80720    0.00000  -13.80720    0.00000    0.00000    0.00000 ;     C6-    N3-    C7-    N4
     6     23      7     33      3   13.80720    0.00000  -13.80720    0.00000    0.00000    0.00000 ;     C6-    N3-    C7-    S2
     7     23      6     21      3   20.92000    0.00000  -20.92000    0.00000    0.00000    0.00000 ;     C7-    N3-    C6-    N2
     7     23      6     22      3   20.92000    0.00000  -20.92000    0.00000    0.00000    0.00000 ;     C7-    N3-    C6-    O1
     7     24     25      8      3   33.47200    0.00000  -33.47200    0.00000    0.00000    0.00000 ;     C7-    N4-    N5-    C8
     7     33      8     25      3    9.20480    0.00000   -9.20480    0.00000    0.00000    0.00000 ;     C7-    S2-    C8-    N5
     7     33      8     26      3    9.20480    0.00000   -9.20480    0.00000    0.00000    0.00000 ;     C7-    S2-    C8-    S1
     8     26     27      9      3    1.39467    4.18400    0.00000   -5.57867    0.00000    0.00000 ;     C8-    S1-   C17-    C9
     8     26     27     45      3    1.39467    4.18400    0.00000   -5.57867    0.00000    0.00000 ;     C8-    S1-   C17-   H12
     8     26     27     46      3    1.39467    4.18400    0.00000   -5.57867    0.00000    0.00000 ;     C8-    S1-   C17-   H13
     8     33      7     23      3    9.20480    0.00000   -9.20480    0.00000    0.00000    0.00000 ;     C8-    S2-    C7-    N3
     8     33      7     24      3    9.20480    0.00000   -9.20480    0.00000    0.00000    0.00000 ;     C8-    S2-    C7-    N4
     9     10     11     12      3   39.74800    0.00000  -39.74800    0.00000    0.00000    0.00000 ;     C9-    N1-   C10-   C11
     9     10     11     31      3   39.74800    0.00000  -39.74800    0.00000    0.00000    0.00000 ;     C9-    N1-   C10-    N6
     9     15     14     31      3   24.05800    0.00000  -24.05800    0.00000    0.00000    0.00000 ;     C9-   C14-   C13-    N6
     9     15     14     32      3   24.05800    0.00000  -24.05800    0.00000    0.00000    0.00000 ;     C9-   C14-   C13-    O2
    10      9     15     14      3   33.47200    0.00000  -33.47200    0.00000    0.00000    0.00000 ;     N1-    C9-   C14-   C13
    10      9     15     40      3   33.47200    0.00000  -33.47200    0.00000    0.00000    0.00000 ;     N1-    C9-   C14-    H7
    10      9     27     26      3    0.00000    0.00000    0.00000    0.00000    0.00000    0.00000 ;     N1-    C9-   C17-    S1
    10      9     27     45      3    0.00000    0.00000    0.00000    0.00000    0.00000    0.00000 ;     N1-    C9-   C17-   H12
    10      9     27     46      3    0.00000    0.00000    0.00000    0.00000    0.00000    0.00000 ;     N1-    C9-   C17-   H13
    10     11     12     28      3   33.47200    0.00000  -33.47200    0.00000    0.00000    0.00000 ;     N1-   C10-   C11-   C18
    10     11     12     36      3   33.47200    0.00000  -33.47200    0.00000    0.00000    0.00000 ;     N1-   C10-   C11-    H3
    10     11     31     14      3   13.80720    0.00000  -13.80720    0.00000    0.00000    0.00000 ;     N1-   C10-    N6-   C13
    10     11     31     30      3   13.80720    0.00000  -13.80720    0.00000    0.00000    0.00000 ;     N1-   C10-    N6-   C20
    11     10      9     15      3   39.74800    0.00000  -39.74800    0.00000    0.00000    0.00000 ;    C10-    N1-    C9-   C14
    11     10      9     27      3   39.74800    0.00000  -39.74800    0.00000    0.00000    0.00000 ;    C10-    N1-    C9-   C17
    11     12     28     29      3   33.47200    0.00000  -33.47200    0.00000    0.00000    0.00000 ;    C10-   C11-   C18-   C19
    11     12     28     47      3   33.47200    0.00000  -33.47200    0.00000    0.00000    0.00000 ;    C10-   C11-   C18-   H14
    11     31     14     15      3   20.92000    0.00000  -20.92000    0.00000    0.00000    0.00000 ;    C10-    N6-   C13-   C14
    11     31     14     32      3   20.92000    0.00000  -20.92000    0.00000    0.00000    0.00000 ;    C10-    N6-   C13-    O2
    11     31     30     29      3   13.80720    0.00000  -13.80720    0.00000    0.00000    0.00000 ;    C10-    N6-   C20-   C19
    11     31     30     48      3   13.80720    0.00000  -13.80720    0.00000    0.00000    0.00000 ;    C10-    N6-   C20-   H15
    12     11     31     14      3   13.80720    0.00000  -13.80720    0.00000    0.00000    0.00000 ;    C11-   C10-    N6-   C13
    12     11     31     30      3   13.80720    0.00000  -13.80720    0.00000    0.00000    0.00000 ;    C11-   C10-    N6-   C20
    12     28     29     13      3   33.47200    0.00000  -33.47200    0.00000    0.00000    0.00000 ;    C11-   C18-   C19-   C12
    12     28     29     30      3   33.47200    0.00000  -33.47200    0.00000    0.00000    0.00000 ;    C11-   C18-   C19-   C20
    13     29     28     47      3   33.47200    0.00000  -33.47200    0.00000    0.00000    0.00000 ;    C12-   C19-   C18-   H14
    13     29     30     31      3   33.47200    0.00000  -33.47200    0.00000    0.00000    0.00000 ;    C12-   C19-   C20-    N6
    13     29     30     48      3   33.47200    0.00000  -33.47200    0.00000    0.00000    0.00000 ;    C12-   C19-   C20-   H15
    14     15      9     27      3   33.47200    0.00000  -33.47200    0.00000    0.00000    0.00000 ;    C13-   C14-    C9-   C17
    14     31     30     29      3   13.80720    0.00000  -13.80720    0.00000    0.00000    0.00000 ;    C13-    N6-   C20-   C19
    14     31     30     48      3   13.80720    0.00000  -13.80720    0.00000    0.00000    0.00000 ;    C13-    N6-   C20-   H15
    15      9     27     26      3    0.00000    0.00000    0.00000    0.00000    0.00000    0.00000 ;    C14-    C9-   C17-    S1
    15      9     27     45      3    0.00000    0.00000    0.00000    0.00000    0.00000    0.00000 ;    C14-    C9-   C17-   H12
    15      9     27     46      3    0.00000    0.00000    0.00000    0.00000    0.00000    0.00000 ;    C14-    C9-   C17-   H13
    15     14     31     30      3   20.92000    0.00000  -20.92000    0.00000    0.00000    0.00000 ;    C14-   C13-    N6-   C20
    16      1      2      3      3    0.00000    0.00000    0.00000    0.00000    0.00000    0.00000 ;     F1-    C1-    C2-    C3
    16      1      2     20      3    0.00000    0.00000    0.00000    0.00000    0.00000    0.00000 ;     F1-    C1-    C2-   C16
    17      1      2      3      3    0.00000    0.00000    0.00000    0.00000    0.00000    0.00000 ;     F2-    C1-    C2-    C3
    17      1      2     20      3    0.00000    0.00000    0.00000    0.00000    0.00000    0.00000 ;     F2-    C1-    C2-   C16
    18      1      2      3      3    0.00000    0.00000    0.00000    0.00000    0.00000    0.00000 ;     F3-    C1-    C2-    C3
    18      1      2     20      3    0.00000    0.00000    0.00000    0.00000    0.00000    0.00000 ;     F3-    C1-    C2-   C16
    19      5      4     21      3   30.33400    0.00000  -30.33400    0.00000    0.00000    0.00000 ;    C15-    C5-    C4-    N2
    20      2      3     34      3   30.33400    0.00000  -30.33400    0.00000    0.00000    0.00000 ;    C16-    C2-    C3-    H1
    20     19      5     35      3   30.33400    0.00000  -30.33400    0.00000    0.00000    0.00000 ;    C16-   C15-    C5-    H2
    21      4      3     34      3   30.33400    0.00000  -30.33400    0.00000    0.00000    0.00000 ;     N2-    C4-    C3-    H1
    21      4      5     35      3   30.33400    0.00000  -30.33400    0.00000    0.00000    0.00000 ;     N2-    C4-    C5-    H2
    21      6     23     44      3   20.92000    0.00000  -20.92000    0.00000    0.00000    0.00000 ;     N2-    C6-    N3-   H11
    22      6     21     43      3   29.28800   -8.36800  -20.92000    0.00000    0.00000    0.00000 ;     O1-    C6-    N2-   H10
    22      6     23     44      3   29.28800   -8.36800  -20.92000    0.00000    0.00000    0.00000 ;     O1-    C6-    N3-   H11
    23      6     21     43      3   20.92000    0.00000  -20.92000    0.00000    0.00000    0.00000 ;     N3-    C6-    N2-   H10
    23      7     24     25      3   39.74800    0.00000  -39.74800    0.00000    0.00000    0.00000 ;     N3-    C7-    N4-    N5
    24      7     23     44      3   13.80720    0.00000  -13.80720    0.00000    0.00000    0.00000 ;     N4-    C7-    N3-   H11
    24     25      8     26      3   39.74800    0.00000  -39.74800    0.00000    0.00000    0.00000 ;     N4-    N5-    C8-    S1
    24     25      8     33      3   39.74800    0.00000  -39.74800    0.00000    0.00000    0.00000 ;     N4-    N5-    C8-    S2
    25      8     26     27      3    9.20480    0.00000   -9.20480    0.00000    0.00000    0.00000 ;     N5-    C8-    S1-   C17
    25     24      7     33      3   39.74800    0.00000  -39.74800    0.00000    0.00000    0.00000 ;     N5-    N4-    C7-    S2
    27      9     15     40      3   33.47200    0.00000  -33.47200    0.00000    0.00000    0.00000 ;    C17-    C9-   C14-    H7
    27     26      8     33      3    9.20480    0.00000   -9.20480    0.00000    0.00000    0.00000 ;    C17-    S1-    C8-    S2
    28     12     11     31      3   33.47200    0.00000  -33.47200    0.00000    0.00000    0.00000 ;    C18-   C11-   C10-    N6
    28     29     13     37      3    0.00000    0.00000    0.00000    0.00000    0.00000    0.00000 ;    C18-   C19-   C12-    H4
    28     29     13     38      3    0.00000    0.00000    0.00000    0.00000    0.00000    0.00000 ;    C18-   C19-   C12-    H5
    28     29     13     39      3    0.00000    0.00000    0.00000    0.00000    0.00000    0.00000 ;    C18-   C19-   C12-    H6
    28     29     30     31      3   33.47200    0.00000  -33.47200    0.00000    0.00000    0.00000 ;    C18-   C19-   C20-    N6
    28     29     30     48      3   33.47200    0.00000  -33.47200    0.00000    0.00000    0.00000 ;    C18-   C19-   C20-   H15
    29     28     12     36      3   33.47200    0.00000  -33.47200    0.00000    0.00000    0.00000 ;    C19-   C18-   C11-    H3
    30     29     13     37      3    0.00000    0.00000    0.00000    0.00000    0.00000    0.00000 ;    C20-   C19-   C12-    H4
    30     29     13     38      3    0.00000    0.00000    0.00000    0.00000    0.00000    0.00000 ;    C20-   C19-   C12-    H5
    30     29     13     39      3    0.00000    0.00000    0.00000    0.00000    0.00000    0.00000 ;    C20-   C19-   C12-    H6
    30     29     28     47      3   33.47200    0.00000  -33.47200    0.00000    0.00000    0.00000 ;    C20-   C19-   C18-   H14
    30     31     14     32      3   20.92000    0.00000  -20.92000    0.00000    0.00000    0.00000 ;    C20-    N6-   C13-    O2
    31     11     12     36      3   33.47200    0.00000  -33.47200    0.00000    0.00000    0.00000 ;     N6-   C10-   C11-    H3
    31     14     15     40      3   24.05800    0.00000  -24.05800    0.00000    0.00000    0.00000 ;     N6-   C13-   C14-    H7
    32     14     15     40      3   24.05800    0.00000  -24.05800    0.00000    0.00000    0.00000 ;     O2-   C13-   C14-    H7
    33      7     23     44      3   13.80720    0.00000  -13.80720    0.00000    0.00000    0.00000 ;     S2-    C7-    N3-   H11
    35      5     19     41      3   30.33400    0.00000  -30.33400    0.00000    0.00000    0.00000 ;     H2-    C5-   C15-    H8
    36     12     28     47      3   33.47200    0.00000  -33.47200    0.00000    0.00000    0.00000 ;     H3-   C11-   C18-   H14
    41     19     20     42      3   30.33400    0.00000  -30.33400    0.00000    0.00000    0.00000 ;     H8-   C15-   C16-    H9

[ dihedrals ] ; impropers
; treated as propers in GROMACS to use correct AMBER analytical function
;    I      j      k      l   func   phase     kd      pn
     1      2     20      3      1   180.00   4.60240   2 ;     C1-    C2-   C16-    C3
     2      4      3     34      1   180.00   4.60240   2 ;     C2-    C4-    C3-    H1
     2     19     20     42      1   180.00   4.60240   2 ;     C2-   C15-   C16-    H9
     3      5      4     21      1   180.00   4.60240   2 ;     C3-    C5-    C4-    N2
     4     19      5     35      1   180.00   4.60240   2 ;     C4-   C15-    C5-    H2
     5     20     19     41      1   180.00   4.60240   2 ;     C5-   C16-   C15-    H8
     6      4     21     43      1   180.00   4.60240   2 ;     C6-    C4-    N2-   H10
     6      7     23     44      1   180.00   4.60240   2 ;     C6-    C7-    N3-   H11
    12     31     11     10      1   180.00   4.60240   2 ;    C11-    N6-   C10-    N1
    13     28     29     30      1   180.00   4.60240   2 ;    C12-   C18-   C19-   C20
    14      9     15     40      1   180.00   4.60240   2 ;    C13-    C9-   C14-    H7
    14     11     31     30      1   180.00   4.60240   2 ;    C13-   C10-    N6-   C20
    15     31     14     32      1   180.00  43.93200   2 ;    C14-    N6-   C13-    O2
    21     23      6     22      1   180.00  43.93200   2 ;     N2-    N3-    C6-    O1
    23     24      7     33      1   180.00   4.60240   2 ;     N3-    N4-    C7-    S2
    25     26      8     33      1   180.00   4.60240   2 ;     N5-    S1-    C8-    S2
    27     15      9     10      1   180.00   4.60240   2 ;    C17-   C14-    C9-    N1
    28     11     12     36      1   180.00   4.60240   2 ;    C18-   C10-   C11-    H3
    29     12     28     47      1   180.00   4.60240   2 ;    C19-   C11-   C18-   H14
    29     48     30     31      1   180.00   4.60240   2 ;    C19-   H15-   C20-    N6

; Include Position restraint file
#ifdef POSRES
#include "posre_MOL.itp"
#endif
