
[ moleculetype ]
;name            nrexcl
 MOL              3

[ atoms ]
;   nr  type  resi  res  atom  cgnr     charge      mass       ; qtot   bond_type
     1    O     1   MOL    O1    1    -0.587981     16.00000 ; qtot -0.588
     2    C     1   MOL    C1    2     0.648037     12.01000 ; qtot 0.060
     3    N     1   MOL    N1    3    -0.596532     14.01000 ; qtot -0.536
     4   C3     1   MOL    C2    4     0.273910     12.01000 ; qtot -0.263
     5   CX     1   MOL    C3    5    -0.205970     12.01000 ; qtot -0.469
     6   CX     1   MOL    C4    6    -0.322563     12.01000 ; qtot -0.791
     7   CX     1   MOL    C5    7    -0.322563     12.01000 ; qtot -1.114
     8   CA     1   MOL    C6    8    -0.001949     12.01000 ; qtot -1.116
     9   CA     1   MOL    C7    9    -0.219027     12.01000 ; qtot -1.335
    10   CA     1   MOL    C8   10    -0.191779     12.01000 ; qtot -1.526
    11   CA     1   MOL    C9   11    -0.219027     12.01000 ; qtot -1.745
    12   CA     1   MOL   C10   12    -0.191779     12.01000 ; qtot -1.937
    13   CP     1   MOL   C11   13     0.273852     12.01000 ; qtot -1.663
    14   CP     1   MOL   C12   14    -0.068768     12.01000 ; qtot -1.732
    15   CA     1   MOL   C13   15     0.165671     12.01000 ; qtot -1.566
    16   C3     1   MOL   C14   16    -0.326744     12.01000 ; qtot -1.893
    17   CA     1   MOL   C15   17    -0.332168     12.01000 ; qtot -2.225
    18   CA     1   MOL   C16   18     0.417285     12.01000 ; qtot -1.808
    19   CA     1   MOL   C17   19    -0.287384     12.01000 ; qtot -2.095
    20   CA     1   MOL   C18   20    -0.265442     12.01000 ; qtot -2.361
    21    N     1   MOL    N2   21    -0.726103     14.01000 ; qtot -3.087
    22    C     1   MOL   C19   22     0.820793     12.01000 ; qtot -2.266
    23    O     1   MOL    O2   23    -0.568948     16.00000 ; qtot -2.835
    24   CA     1   MOL   C20   24     0.038069     12.01000 ; qtot -2.797
    25   CA     1   MOL   C21   25    -0.409443     12.01000 ; qtot -3.207
    26   CA     1   MOL   C22   26     0.671953     12.01000 ; qtot -2.535
    27   NB     1   MOL    N3   27    -0.638544     14.01000 ; qtot -3.173
    28   CA     1   MOL   C23   28     0.324541     12.01000 ; qtot -2.849
    29   CA     1   MOL   C24   29    -0.439005     12.01000 ; qtot -3.288
    30   NH     1   MOL    N4   30    -0.375524     14.01000 ; qtot -3.663
    31   C3     1   MOL   C25   31     0.013339     12.01000 ; qtot -3.650
    32   C3     1   MOL   C26   32     0.191600     12.01000 ; qtot -3.458
    33   OS     1   MOL    O3   33    -0.426907     16.00000 ; qtot -3.885
    34   C3     1   MOL   C27   34     0.191600     12.01000 ; qtot -3.694
    35   C3     1   MOL   C28   35     0.013339     12.01000 ; qtot -3.680
    36   HN     1   MOL    H1   36     0.260117      1.00800 ; qtot -3.420
    37   H1     1   MOL    H2   37     0.025884      1.00800 ; qtot -3.394
    38   H1     1   MOL    H3   38     0.025884      1.00800 ; qtot -3.368
    39   HC     1   MOL    H4   39     0.167553      1.00800 ; qtot -3.201
    40   HC     1   MOL    H5   40     0.159504      1.00800 ; qtot -3.041
    41   HC     1   MOL    H6   41     0.159504      1.00800 ; qtot -2.882
    42   HC     1   MOL    H7   42     0.159504      1.00800 ; qtot -2.722
    43   HC     1   MOL    H8   43     0.159504      1.00800 ; qtot -2.563
    44   HA     1   MOL    H9   44     0.182243      1.00800 ; qtot -2.380
    45   HA     1   MOL   H10   45     0.142766      1.00800 ; qtot -2.238
    46   HA     1   MOL   H11   46     0.182243      1.00800 ; qtot -2.055
    47   HA     1   MOL   H12   47     0.142766      1.00800 ; qtot -1.913
    48   HC     1   MOL   H13   48     0.093920      1.00800 ; qtot -1.819
    49   HC     1   MOL   H14   49     0.093920      1.00800 ; qtot -1.725
    50   HC     1   MOL   H15   50     0.093920      1.00800 ; qtot -1.631
    51   HA     1   MOL   H16   51     0.178453      1.00800 ; qtot -1.452
    52   HA     1   MOL   H17   52     0.170018      1.00800 ; qtot -1.282
    53   HA     1   MOL   H18   53     0.186461      1.00800 ; qtot -1.096
    54   HN     1   MOL   H19   54     0.362526      1.00800 ; qtot -0.733
    55   HA     1   MOL   H20   55     0.141096      1.00800 ; qtot -0.592
    56   H4     1   MOL   H21   56     0.085318      1.00800 ; qtot -0.507
    57   HA     1   MOL   H22   57     0.159319      1.00800 ; qtot -0.348
    58   H1     1   MOL   H23   58     0.064832      1.00800 ; qtot -0.283
    59   H1     1   MOL   H24   59     0.064832      1.00800 ; qtot -0.218
    60   H1     1   MOL   H25   60     0.022102      1.00800 ; qtot -0.196
    61   H1     1   MOL   H26   61     0.022102      1.00800 ; qtot -0.174
    62   H1     1   MOL   H27   62     0.022102      1.00800 ; qtot -0.152
    63   H1     1   MOL   H28   63     0.022102      1.00800 ; qtot -0.130
    64   H1     1   MOL   H29   64     0.064832      1.00800 ; qtot -0.065
    65   H1     1   MOL   H30   65     0.064832      1.00800 ; qtot -0.000

[ bonds ]
;   ai     aj funct   r             k
     1      2   1    1.2183e-01    5.3363e+05 ;     O1 - C1    
     2      3   1    1.3789e-01    3.5782e+05 ;     C1 - N1    
     2      8   1    1.4906e-01    2.8945e+05 ;     C1 - C6    
     3      4   1    1.4619e-01    2.7506e+05 ;     N1 - C2    
     3     36   1    1.0129e-01    3.3740e+05 ;     N1 - H1    
     4      5   1    1.5220e-01    2.6368e+05 ;     C2 - C3    
     4     37   1    1.0969e-01    2.7665e+05 ;     C2 - H2    
     4     38   1    1.0969e-01    2.7665e+05 ;     C2 - H3    
     5      6   1    1.5080e-01    2.7489e+05 ;     C3 - C4    
     5      7   1    1.5080e-01    2.7489e+05 ;     C3 - C5    
     5     39   1    1.0870e-01    2.8811e+05 ;     C3 - H4    
     6      7   1    1.5080e-01    2.7489e+05 ;     C4 - C5    
     6     40   1    1.0870e-01    2.8811e+05 ;     C4 - H5    
     6     41   1    1.0870e-01    2.8811e+05 ;     C4 - H6    
     7     42   1    1.0870e-01    2.8811e+05 ;     C5 - H7    
     7     43   1    1.0870e-01    2.8811e+05 ;     C5 - H8    
     8      9   1    1.3984e-01    3.8585e+05 ;     C6 - C7    
     8     11   1    1.3984e-01    3.8585e+05 ;     C6 - C9    
     9     10   1    1.3984e-01    3.8585e+05 ;     C7 - C8    
     9     44   1    1.0860e-01    2.8937e+05 ;     C7 - H9    
    10     13   1    1.4058e-01    3.7673e+05 ;     C8 - C11   
    10     45   1    1.0860e-01    2.8937e+05 ;     C8 - H10   
    11     12   1    1.3984e-01    3.8585e+05 ;     C9 - C10   
    11     46   1    1.0860e-01    2.8937e+05 ;     C9 - H11   
    12     13   1    1.4058e-01    3.7673e+05 ;    C10 - C11   
    12     47   1    1.0860e-01    2.8937e+05 ;    C10 - H12   
    13     14   1    1.4854e-01    2.9405e+05 ;    C11 - C12   
    14     15   1    1.4058e-01    3.7673e+05 ;    C12 - C13   
    14     17   1    1.4058e-01    3.7673e+05 ;    C12 - C15   
    15     16   1    1.5156e-01    2.6861e+05 ;    C13 - C14   
    15     20   1    1.3984e-01    3.8585e+05 ;    C13 - C18   
    16     48   1    1.0969e-01    2.7665e+05 ;    C14 - H13   
    16     49   1    1.0969e-01    2.7665e+05 ;    C14 - H14   
    16     50   1    1.0969e-01    2.7665e+05 ;    C14 - H15   
    17     18   1    1.3984e-01    3.8585e+05 ;    C15 - C16   
    17     51   1    1.0860e-01    2.8937e+05 ;    C15 - H16   
    18     19   1    1.3984e-01    3.8585e+05 ;    C16 - C17   
    18     21   1    1.4121e-01    3.2150e+05 ;    C16 - N2    
    19     20   1    1.3984e-01    3.8585e+05 ;    C17 - C18   
    19     52   1    1.0860e-01    2.8937e+05 ;    C17 - H17   
    20     53   1    1.0860e-01    2.8937e+05 ;    C18 - H18   
    21     22   1    1.3789e-01    3.5782e+05 ;     N2 - C19   
    21     54   1    1.0129e-01    3.3740e+05 ;     N2 - H19   
    22     23   1    1.2183e-01    5.3363e+05 ;    C19 - O2    
    22     24   1    1.4906e-01    2.8945e+05 ;    C19 - C20   
    24     25   1    1.3984e-01    3.8585e+05 ;    C20 - C21   
    24     29   1    1.3984e-01    3.8585e+05 ;    C20 - C24   
    25     26   1    1.3984e-01    3.8585e+05 ;    C21 - C22   
    25     55   1    1.0860e-01    2.8937e+05 ;    C21 - H20   
    26     27   1    1.3390e-01    4.0836e+05 ;    C22 - N3    
    26     30   1    1.3859e-01    3.4970e+05 ;    C22 - N4    
    27     28   1    1.3390e-01    4.0836e+05 ;     N3 - C23   
    28     29   1    1.3984e-01    3.8585e+05 ;    C23 - C24   
    28     56   1    1.0890e-01    2.8577e+05 ;    C23 - H21   
    29     57   1    1.0860e-01    2.8937e+05 ;    C24 - H22   
    30     31   1    1.4640e-01    2.7330e+05 ;     N4 - C25   
    30     35   1    1.4640e-01    2.7330e+05 ;     N4 - C28   
    31     32   1    1.5375e-01    2.5179e+05 ;    C25 - C26   
    31     58   1    1.0969e-01    2.7665e+05 ;    C25 - H23   
    31     59   1    1.0969e-01    2.7665e+05 ;    C25 - H24   
    32     33   1    1.4316e-01    2.5824e+05 ;    C26 - O3    
    32     60   1    1.0969e-01    2.7665e+05 ;    C26 - H25   
    32     61   1    1.0969e-01    2.7665e+05 ;    C26 - H26   
    33     34   1    1.4316e-01    2.5824e+05 ;     O3 - C27   
    34     35   1    1.5375e-01    2.5179e+05 ;    C27 - C28   
    34     62   1    1.0969e-01    2.7665e+05 ;    C27 - H27   
    34     63   1    1.0969e-01    2.7665e+05 ;    C27 - H28   
    35     64   1    1.0969e-01    2.7665e+05 ;    C28 - H29   
    35     65   1    1.0969e-01    2.7665e+05 ;    C28 - H30   

[ pairs ]
;   ai     aj    funct
     1      4      1 ;     O1 - C2    
     1      9      1 ;     O1 - C7    
     1     11      1 ;     O1 - C9    
     1     36      1 ;     O1 - H1    
     2      5      1 ;     C1 - C3    
     2     10      1 ;     C1 - C8    
     2     12      1 ;     C1 - C10   
     2     37      1 ;     C1 - H2    
     2     38      1 ;     C1 - H3    
     2     44      1 ;     C1 - H9    
     2     46      1 ;     C1 - H11   
     3      6      1 ;     N1 - C4    
     3      7      1 ;     N1 - C5    
     3      9      1 ;     N1 - C7    
     3     11      1 ;     N1 - C9    
     3     39      1 ;     N1 - H4    
     4      8      1 ;     C2 - C6    
     4     40      1 ;     C2 - H5    
     4     41      1 ;     C2 - H6    
     4     42      1 ;     C2 - H7    
     4     43      1 ;     C2 - H8    
     5     36      1 ;     C3 - H1    
     6     37      1 ;     C4 - H2    
     6     38      1 ;     C4 - H3    
     7     37      1 ;     C5 - H2    
     7     38      1 ;     C5 - H3    
     8     13      1 ;     C6 - C11   
     8     36      1 ;     C6 - H1    
     8     45      1 ;     C6 - H10   
     8     47      1 ;     C6 - H12   
     9     12      1 ;     C7 - C10   
     9     14      1 ;     C7 - C12   
     9     46      1 ;     C7 - H11   
    10     11      1 ;     C8 - C9    
    10     15      1 ;     C8 - C13   
    10     17      1 ;     C8 - C15   
    10     47      1 ;     C8 - H12   
    11     14      1 ;     C9 - C12   
    11     44      1 ;     C9 - H9    
    12     15      1 ;    C10 - C13   
    12     17      1 ;    C10 - C15   
    12     45      1 ;    C10 - H10   
    13     16      1 ;    C11 - C14   
    13     18      1 ;    C11 - C16   
    13     20      1 ;    C11 - C18   
    13     44      1 ;    C11 - H9    
    13     46      1 ;    C11 - H11   
    13     51      1 ;    C11 - H16   
    14     19      1 ;    C12 - C17   
    14     21      1 ;    C12 - N2    
    14     45      1 ;    C12 - H10   
    14     47      1 ;    C12 - H12   
    14     48      1 ;    C12 - H13   
    14     49      1 ;    C12 - H14   
    14     50      1 ;    C12 - H15   
    14     53      1 ;    C12 - H18   
    15     18      1 ;    C13 - C16   
    15     51      1 ;    C13 - H16   
    15     52      1 ;    C13 - H17   
    16     17      1 ;    C14 - C15   
    16     19      1 ;    C14 - C17   
    16     53      1 ;    C14 - H18   
    17     20      1 ;    C15 - C18   
    17     22      1 ;    C15 - C19   
    17     52      1 ;    C15 - H17   
    17     54      1 ;    C15 - H19   
    18     23      1 ;    C16 - O2    
    18     24      1 ;    C16 - C20   
    18     53      1 ;    C16 - H18   
    19     22      1 ;    C17 - C19   
    19     51      1 ;    C17 - H16   
    19     54      1 ;    C17 - H19   
    20     21      1 ;    C18 - N2    
    20     48      1 ;    C18 - H13   
    20     49      1 ;    C18 - H14   
    20     50      1 ;    C18 - H15   
    21     25      1 ;     N2 - C21   
    21     29      1 ;     N2 - C24   
    21     51      1 ;     N2 - H16   
    21     52      1 ;     N2 - H17   
    22     26      1 ;    C19 - C22   
    22     28      1 ;    C19 - C23   
    22     55      1 ;    C19 - H20   
    22     57      1 ;    C19 - H22   
    23     25      1 ;     O2 - C21   
    23     29      1 ;     O2 - C24   
    23     54      1 ;     O2 - H19   
    24     27      1 ;    C20 - N3    
    24     30      1 ;    C20 - N4    
    24     54      1 ;    C20 - H19   
    24     56      1 ;    C20 - H21   
    25     28      1 ;    C21 - C23   
    25     31      1 ;    C21 - C25   
    25     35      1 ;    C21 - C28   
    25     57      1 ;    C21 - H22   
    26     29      1 ;    C22 - C24   
    26     32      1 ;    C22 - C26   
    26     34      1 ;    C22 - C27   
    26     56      1 ;    C22 - H21   
    26     58      1 ;    C22 - H23   
    26     59      1 ;    C22 - H24   
    26     64      1 ;    C22 - H29   
    26     65      1 ;    C22 - H30   
    27     31      1 ;     N3 - C25   
    27     35      1 ;     N3 - C28   
    27     55      1 ;     N3 - H20   
    27     57      1 ;     N3 - H22   
    28     30      1 ;    C23 - N4    
    29     55      1 ;    C24 - H20   
    30     33      1 ;     N4 - O3    
    30     55      1 ;     N4 - H20   
    30     60      1 ;     N4 - H25   
    30     61      1 ;     N4 - H26   
    30     62      1 ;     N4 - H27   
    30     63      1 ;     N4 - H28   
    31     34      1 ;    C25 - C27   
    31     64      1 ;    C25 - H29   
    31     65      1 ;    C25 - H30   
    32     35      1 ;    C26 - C28   
    32     62      1 ;    C26 - H27   
    32     63      1 ;    C26 - H28   
    33     58      1 ;     O3 - H23   
    33     59      1 ;     O3 - H24   
    33     64      1 ;     O3 - H29   
    33     65      1 ;     O3 - H30   
    34     60      1 ;    C27 - H25   
    34     61      1 ;    C27 - H26   
    35     58      1 ;    C28 - H23   
    35     59      1 ;    C28 - H24   
    36     37      1 ;     H1 - H2    
    36     38      1 ;     H1 - H3    
    37     39      1 ;     H2 - H4    
    38     39      1 ;     H3 - H4    
    39     40      1 ;     H4 - H5    
    39     41      1 ;     H4 - H6    
    39     42      1 ;     H4 - H7    
    39     43      1 ;     H4 - H8    
    40     42      1 ;     H5 - H7    
    40     43      1 ;     H5 - H8    
    41     42      1 ;     H6 - H7    
    41     43      1 ;     H6 - H8    
    44     45      1 ;     H9 - H10   
    46     47      1 ;    H11 - H12   
    52     53      1 ;    H17 - H18   
    56     57      1 ;    H21 - H22   
    58     60      1 ;    H23 - H25   
    58     61      1 ;    H23 - H26   
    59     60      1 ;    H24 - H25   
    59     61      1 ;    H24 - H26   
    62     64      1 ;    H27 - H29   
    62     65      1 ;    H27 - H30   
    63     64      1 ;    H28 - H29   
    63     65      1 ;    H28 - H30   

[ angles ]
;   ai     aj     ak    funct   theta         cth
     1      2      3      1    1.2305e+02    6.2091e+02 ;     O1 - C1     - N1    
     1      2      8      1    1.2260e+02    5.7488e+02 ;     O1 - C1     - C6    
     2      3      4      1    1.2069e+02    5.3053e+02 ;     C1 - N1     - C2    
     2      3     36      1    1.1755e+02    4.0417e+02 ;     C1 - N1     - H1    
     2      8      9      1    1.2033e+02    5.3806e+02 ;     C1 - C6     - C7    
     2      8     11      1    1.2033e+02    5.3806e+02 ;     C1 - C6     - C9    
     3      2      8      1    1.1525e+02    5.6651e+02 ;     N1 - C1     - C6    
     3      4      5      1    1.1236e+02    5.5312e+02 ;     N1 - C2     - C3    
     3      4     37      1    1.0888e+02    4.1673e+02 ;     N1 - C2     - H2    
     3      4     38      1    1.0888e+02    4.1673e+02 ;     N1 - C2     - H3    
     4      3     36      1    1.1768e+02    3.8325e+02 ;     C2 - N1     - H1    
     4      5      6      1    1.2011e+02    5.1463e+02 ;     C2 - C3     - C4    
     4      5      7      1    1.2011e+02    5.1463e+02 ;     C2 - C3     - C5    
     4      5     39      1    1.1448e+02    3.8325e+02 ;     C2 - C3     - H4    
     5      4     37      1    1.0969e+02    3.9162e+02 ;     C3 - C2     - H2    
     5      4     38      1    1.0969e+02    3.9162e+02 ;     C3 - C2     - H3    
     5      6      7      1    6.0000e+01    7.3136e+02 ;     C3 - C4     - C5    
     5      6     40      1    1.1769e+02    3.8158e+02 ;     C3 - C4     - H5    
     5      6     41      1    1.1769e+02    3.8158e+02 ;     C3 - C4     - H6    
     5      7      6      1    6.0000e+01    7.3136e+02 ;     C3 - C5     - C4    
     5      7     42      1    1.1769e+02    3.8158e+02 ;     C3 - C5     - H7    
     5      7     43      1    1.1769e+02    3.8158e+02 ;     C3 - C5     - H8    
     6      5      7      1    6.0000e+01    7.3136e+02 ;     C4 - C3     - C5    
     6      5     39      1    1.1769e+02    3.8158e+02 ;     C4 - C3     - H4    
     6      7     42      1    1.1769e+02    3.8158e+02 ;     C4 - C5     - H7    
     6      7     43      1    1.1769e+02    3.8158e+02 ;     C4 - C5     - H8    
     7      5     39      1    1.1769e+02    3.8158e+02 ;     C5 - C3     - H4    
     7      6     40      1    1.1769e+02    3.8158e+02 ;     C5 - C4     - H5    
     7      6     41      1    1.1769e+02    3.8158e+02 ;     C5 - C4     - H6    
     8      9     10      1    1.2002e+02    5.5731e+02 ;     C6 - C7     - C8    
     8      9     44      1    1.1988e+02    4.0334e+02 ;     C6 - C7     - H9    
     8     11     12      1    1.2002e+02    5.5731e+02 ;     C6 - C9     - C10   
     8     11     46      1    1.1988e+02    4.0334e+02 ;     C6 - C9     - H11   
     9      8     11      1    1.2002e+02    5.5731e+02 ;     C7 - C6     - C9    
     9     10     13      1    1.2069e+02    5.5480e+02 ;     C7 - C8     - C11   
     9     10     45      1    1.1988e+02    4.0334e+02 ;     C7 - C8     - H10   
    10      9     44      1    1.1988e+02    4.0334e+02 ;     C8 - C7     - H9    
    10     13     12      1    1.1838e+02    5.5815e+02 ;     C8 - C11    - C10   
    10     13     14      1    1.2111e+02    5.3555e+02 ;     C8 - C11    - C12   
    11     12     13      1    1.2069e+02    5.5480e+02 ;     C9 - C10    - C11   
    11     12     47      1    1.1988e+02    4.0334e+02 ;     C9 - C10    - H12   
    12     11     46      1    1.1988e+02    4.0334e+02 ;    C10 - C9     - H11   
    12     13     14      1    1.2111e+02    5.3555e+02 ;    C10 - C11    - C12   
    13     10     45      1    1.1986e+02    4.0166e+02 ;    C11 - C8     - H10   
    13     12     47      1    1.1986e+02    4.0166e+02 ;    C11 - C10    - H12   
    13     14     15      1    1.2111e+02    5.3555e+02 ;    C11 - C12    - C13   
    13     14     17      1    1.2111e+02    5.3555e+02 ;    C11 - C12    - C15   
    14     15     16      1    1.2063e+02    5.3053e+02 ;    C12 - C13    - C14   
    14     15     20      1    1.2069e+02    5.5480e+02 ;    C12 - C13    - C18   
    14     17     18      1    1.2069e+02    5.5480e+02 ;    C12 - C15    - C16   
    14     17     51      1    1.1986e+02    4.0166e+02 ;    C12 - C15    - H16   
    15     14     17      1    1.1838e+02    5.5815e+02 ;    C13 - C12    - C15   
    15     16     48      1    1.1047e+02    3.9162e+02 ;    C13 - C14    - H13   
    15     16     49      1    1.1047e+02    3.9162e+02 ;    C13 - C14    - H14   
    15     16     50      1    1.1047e+02    3.9162e+02 ;    C13 - C14    - H15   
    15     20     19      1    1.2002e+02    5.5731e+02 ;    C13 - C18    - C17   
    15     20     53      1    1.1988e+02    4.0334e+02 ;    C13 - C18    - H18   
    16     15     20      1    1.2077e+02    5.3137e+02 ;    C14 - C13    - C18   
    17     18     19      1    1.2002e+02    5.5731e+02 ;    C15 - C16    - C17   
    17     18     21      1    1.2019e+02    5.6819e+02 ;    C15 - C16    - N2    
    18     17     51      1    1.1988e+02    4.0334e+02 ;    C16 - C15    - H16   
    18     19     20      1    1.2002e+02    5.5731e+02 ;    C16 - C17    - C18   
    18     19     52      1    1.1988e+02    4.0334e+02 ;    C16 - C17    - H17   
    18     21     22      1    1.2371e+02    5.3388e+02 ;    C16 - N2     - C19   
    18     21     54      1    1.1600e+02    3.9832e+02 ;    C16 - N2     - H19   
    19     18     21      1    1.2019e+02    5.6819e+02 ;    C17 - C16    - N2    
    19     20     53      1    1.1988e+02    4.0334e+02 ;    C17 - C18    - H18   
    20     19     52      1    1.1988e+02    4.0334e+02 ;    C18 - C17    - H17   
    21     22     23      1    1.2305e+02    6.2091e+02 ;     N2 - C19    - O2    
    21     22     24      1    1.1525e+02    5.6651e+02 ;     N2 - C19    - C20   
    22     21     54      1    1.1755e+02    4.0417e+02 ;    C19 - N2     - H19   
    22     24     25      1    1.2033e+02    5.3806e+02 ;    C19 - C20    - C21   
    22     24     29      1    1.2033e+02    5.3806e+02 ;    C19 - C20    - C24   
    23     22     24      1    1.2260e+02    5.7488e+02 ;     O2 - C19    - C20   
    24     25     26      1    1.2002e+02    5.5731e+02 ;    C20 - C21    - C22   
    24     25     55      1    1.1988e+02    4.0334e+02 ;    C20 - C21    - H20   
    24     29     28      1    1.2002e+02    5.5731e+02 ;    C20 - C24    - C23   
    24     29     57      1    1.1988e+02    4.0334e+02 ;    C20 - C24    - H22   
    25     24     29      1    1.2002e+02    5.5731e+02 ;    C21 - C20    - C24   
    25     26     27      1    1.2294e+02    5.7572e+02 ;    C21 - C22    - N3    
    25     26     30      1    1.2095e+02    5.7153e+02 ;    C21 - C22    - N4    
    26     25     55      1    1.1988e+02    4.0334e+02 ;    C22 - C21    - H20   
    26     27     28      1    1.1722e+02    5.7153e+02 ;    C22 - N3     - C23   
    26     30     31      1    1.1998e+02    5.3053e+02 ;    C22 - N4     - C25   
    26     30     35      1    1.1998e+02    5.3053e+02 ;    C22 - N4     - C28   
    27     26     30      1    1.1694e+02    6.0835e+02 ;     N3 - C22    - N4    
    27     28     29      1    1.2294e+02    5.7572e+02 ;     N3 - C23    - C24   
    27     28     56      1    1.1603e+02    4.3430e+02 ;     N3 - C23    - H21   
    28     29     57      1    1.1988e+02    4.0334e+02 ;    C23 - C24    - H22   
    29     28     56      1    1.2034e+02    4.0250e+02 ;    C24 - C23    - H21   
    30     31     32      1    1.1046e+02    5.5396e+02 ;     N4 - C25    - C26   
    30     31     58      1    1.0979e+02    4.1505e+02 ;     N4 - C25    - H23   
    30     31     59      1    1.0979e+02    4.1505e+02 ;     N4 - C25    - H24   
    30     35     34      1    1.1046e+02    5.5396e+02 ;     N4 - C28    - C27   
    30     35     64      1    1.0979e+02    4.1505e+02 ;     N4 - C28    - H29   
    30     35     65      1    1.0979e+02    4.1505e+02 ;     N4 - C28    - H30   
    31     30     35      1    1.1451e+02    5.2886e+02 ;    C25 - N4     - C28   
    31     32     33      1    1.0797e+02    5.6902e+02 ;    C25 - C26    - O3    
    31     32     60      1    1.0956e+02    3.8828e+02 ;    C25 - C26    - H25   
    31     32     61      1    1.0956e+02    3.8828e+02 ;    C25 - C26    - H26   
    32     31     58      1    1.0956e+02    3.8828e+02 ;    C26 - C25    - H23   
    32     31     59      1    1.0956e+02    3.8828e+02 ;    C26 - C25    - H24   
    32     33     34      1    1.1248e+02    5.2467e+02 ;    C26 - O3     - C27   
    33     32     60      1    1.0978e+02    4.2509e+02 ;     O3 - C26    - H25   
    33     32     61      1    1.0978e+02    4.2509e+02 ;     O3 - C26    - H26   
    33     34     35      1    1.0797e+02    5.6902e+02 ;     O3 - C27    - C28   
    33     34     62      1    1.0978e+02    4.2509e+02 ;     O3 - C27    - H27   
    33     34     63      1    1.0978e+02    4.2509e+02 ;     O3 - C27    - H28   
    34     35     64      1    1.0956e+02    3.8828e+02 ;    C27 - C28    - H29   
    34     35     65      1    1.0956e+02    3.8828e+02 ;    C27 - C28    - H30   
    35     34     62      1    1.0956e+02    3.8828e+02 ;    C28 - C27    - H27   
    35     34     63      1    1.0956e+02    3.8828e+02 ;    C28 - C27    - H28   
    37      4     38      1    1.0846e+02    3.2803e+02 ;     H2 - C2     - H3    
    40      6     41      1    1.1443e+02    3.2217e+02 ;     H5 - C4     - H6    
    42      7     43      1    1.1443e+02    3.2217e+02 ;     H7 - C5     - H8    
    48     16     49      1    1.0758e+02    3.2970e+02 ;    H13 - C14    - H14   
    48     16     50      1    1.0758e+02    3.2970e+02 ;    H13 - C14    - H15   
    49     16     50      1    1.0758e+02    3.2970e+02 ;    H14 - C14    - H15   
    58     31     59      1    1.0846e+02    3.2803e+02 ;    H23 - C25    - H24   
    60     32     61      1    1.0846e+02    3.2803e+02 ;    H25 - C26    - H26   
    62     34     63      1    1.0846e+02    3.2803e+02 ;    H27 - C27    - H28   
    64     35     65      1    1.0846e+02    3.2803e+02 ;    H29 - C28    - H30   

[ dihedrals ] ; propers
; treated as RBs in GROMACS to use combine multiple AMBER torsions per quartet
;    I      j      k      l   func    C0         C1         C2         C3         C4         C5
     1      2      3      4      3   20.92000    0.00000  -20.92000    0.00000    0.00000    0.00000 ;     O1-    C1-    N1-    C2
     1      2      3     36      3   29.28800   -8.36800  -20.92000    0.00000    0.00000    0.00000 ;     O1-    C1-    N1-    H1
     1      2      8      9      3    8.36800    0.00000   -8.36800    0.00000    0.00000    0.00000 ;     O1-    C1-    C6-    C7
     1      2      8     11      3    8.36800    0.00000   -8.36800    0.00000    0.00000    0.00000 ;     O1-    C1-    C6-    C9
     2      3      4      5      3    0.00000    0.00000    0.00000    0.00000    0.00000    0.00000 ;     C1-    N1-    C2-    C3
     2      3      4     37      3    0.00000    0.00000    0.00000    0.00000    0.00000    0.00000 ;     C1-    N1-    C2-    H2
     2      3      4     38      3    0.00000    0.00000    0.00000    0.00000    0.00000    0.00000 ;     C1-    N1-    C2-    H3
     2      8      9     10      3   30.33400    0.00000  -30.33400    0.00000    0.00000    0.00000 ;     C1-    C6-    C7-    C8
     2      8      9     44      3   30.33400    0.00000  -30.33400    0.00000    0.00000    0.00000 ;     C1-    C6-    C7-    H9
     2      8     11     12      3   30.33400    0.00000  -30.33400    0.00000    0.00000    0.00000 ;     C1-    C6-    C9-   C10
     2      8     11     46      3   30.33400    0.00000  -30.33400    0.00000    0.00000    0.00000 ;     C1-    C6-    C9-   H11
     3      2      8      9      3    8.36800    0.00000   -8.36800    0.00000    0.00000    0.00000 ;     N1-    C1-    C6-    C7
     3      2      8     11      3    8.36800    0.00000   -8.36800    0.00000    0.00000    0.00000 ;     N1-    C1-    C6-    C9
     3      4      5      6      3    0.65084    1.95253    0.00000   -2.60338    0.00000    0.00000 ;     N1-    C2-    C3-    C4
     3      4      5      7      3    0.65084    1.95253    0.00000   -2.60338    0.00000    0.00000 ;     N1-    C2-    C3-    C5
     3      4      5     39      3    0.65084    1.95253    0.00000   -2.60338    0.00000    0.00000 ;     N1-    C2-    C3-    H4
     4      3      2      8      3   20.92000    0.00000  -20.92000    0.00000    0.00000    0.00000 ;     C2-    N1-    C1-    C6
     4      5      6      7      3    0.65084    1.95253    0.00000   -2.60338    0.00000    0.00000 ;     C2-    C3-    C4-    C5
     4      5      6     40      3    0.65084    1.95253    0.00000   -2.60338    0.00000    0.00000 ;     C2-    C3-    C4-    H5
     4      5      6     41      3    0.65084    1.95253    0.00000   -2.60338    0.00000    0.00000 ;     C2-    C3-    C4-    H6
     4      5      7      6      3    0.65084    1.95253    0.00000   -2.60338    0.00000    0.00000 ;     C2-    C3-    C5-    C4
     4      5      7     42      3    0.65084    1.95253    0.00000   -2.60338    0.00000    0.00000 ;     C2-    C3-    C5-    H7
     4      5      7     43      3    0.65084    1.95253    0.00000   -2.60338    0.00000    0.00000 ;     C2-    C3-    C5-    H8
     5      4      3     36      3    0.00000    0.00000    0.00000    0.00000    0.00000    0.00000 ;     C3-    C2-    N1-    H1
     5      6      7     42      3    0.65084    1.95253    0.00000   -2.60338    0.00000    0.00000 ;     C3-    C4-    C5-    H7
     5      6      7     43      3    0.65084    1.95253    0.00000   -2.60338    0.00000    0.00000 ;     C3-    C4-    C5-    H8
     5      7      6     40      3    0.65084    1.95253    0.00000   -2.60338    0.00000    0.00000 ;     C3-    C5-    C4-    H5
     5      7      6     41      3    0.65084    1.95253    0.00000   -2.60338    0.00000    0.00000 ;     C3-    C5-    C4-    H6
     6      5      4     37      3    0.66944    2.00832    0.00000   -2.67776    0.00000    0.00000 ;     C4-    C3-    C2-    H2
     6      5      4     38      3    0.66944    2.00832    0.00000   -2.67776    0.00000    0.00000 ;     C4-    C3-    C2-    H3
     6      5      7     42      3    0.65084    1.95253    0.00000   -2.60338    0.00000    0.00000 ;     C4-    C3-    C5-    H7
     6      5      7     43      3    0.65084    1.95253    0.00000   -2.60338    0.00000    0.00000 ;     C4-    C3-    C5-    H8
     6      7      5     39      3    0.65084    1.95253    0.00000   -2.60338    0.00000    0.00000 ;     C4-    C5-    C3-    H4
     7      5      4     37      3    0.66944    2.00832    0.00000   -2.67776    0.00000    0.00000 ;     C5-    C3-    C2-    H2
     7      5      4     38      3    0.66944    2.00832    0.00000   -2.67776    0.00000    0.00000 ;     C5-    C3-    C2-    H3
     7      5      6     40      3    0.65084    1.95253    0.00000   -2.60338    0.00000    0.00000 ;     C5-    C3-    C4-    H5
     7      5      6     41      3    0.65084    1.95253    0.00000   -2.60338    0.00000    0.00000 ;     C5-    C3-    C4-    H6
     7      6      5     39      3    0.65084    1.95253    0.00000   -2.60338    0.00000    0.00000 ;     C5-    C4-    C3-    H4
     8      2      3     36      3   20.92000    0.00000  -20.92000    0.00000    0.00000    0.00000 ;     C6-    C1-    N1-    H1
     8      9     10     13      3   30.33400    0.00000  -30.33400    0.00000    0.00000    0.00000 ;     C6-    C7-    C8-   C11
     8      9     10     45      3   30.33400    0.00000  -30.33400    0.00000    0.00000    0.00000 ;     C6-    C7-    C8-   H10
     8     11     12     13      3   30.33400    0.00000  -30.33400    0.00000    0.00000    0.00000 ;     C6-    C9-   C10-   C11
     8     11     12     47      3   30.33400    0.00000  -30.33400    0.00000    0.00000    0.00000 ;     C6-    C9-   C10-   H12
     9      8     11     12      3   30.33400    0.00000  -30.33400    0.00000    0.00000    0.00000 ;     C7-    C6-    C9-   C10
     9      8     11     46      3   30.33400    0.00000  -30.33400    0.00000    0.00000    0.00000 ;     C7-    C6-    C9-   H11
     9     10     13     12      3   30.33400    0.00000  -30.33400    0.00000    0.00000    0.00000 ;     C7-    C8-   C11-   C10
     9     10     13     14      3   30.33400    0.00000  -30.33400    0.00000    0.00000    0.00000 ;     C7-    C8-   C11-   C12
    10      9      8     11      3   30.33400    0.00000  -30.33400    0.00000    0.00000    0.00000 ;     C8-    C7-    C6-    C9
    10     13     12     11      3   30.33400    0.00000  -30.33400    0.00000    0.00000    0.00000 ;     C8-   C11-   C10-    C9
    10     13     12     47      3   30.33400    0.00000  -30.33400    0.00000    0.00000    0.00000 ;     C8-   C11-   C10-   H12
    10     13     14     15      3    8.36800    0.00000   -8.36800    0.00000    0.00000    0.00000 ;     C8-   C11-   C12-   C13
    10     13     14     17      3    8.36800    0.00000   -8.36800    0.00000    0.00000    0.00000 ;     C8-   C11-   C12-   C15
    11      8      9     44      3   30.33400    0.00000  -30.33400    0.00000    0.00000    0.00000 ;     C9-    C6-    C7-    H9
    11     12     13     14      3   30.33400    0.00000  -30.33400    0.00000    0.00000    0.00000 ;     C9-   C10-   C11-   C12
    12     13     10     45      3   30.33400    0.00000  -30.33400    0.00000    0.00000    0.00000 ;    C10-   C11-    C8-   H10
    12     13     14     15      3    8.36800    0.00000   -8.36800    0.00000    0.00000    0.00000 ;    C10-   C11-   C12-   C13
    12     13     14     17      3    8.36800    0.00000   -8.36800    0.00000    0.00000    0.00000 ;    C10-   C11-   C12-   C15
    13     10      9     44      3   30.33400    0.00000  -30.33400    0.00000    0.00000    0.00000 ;    C11-    C8-    C7-    H9
    13     12     11     46      3   30.33400    0.00000  -30.33400    0.00000    0.00000    0.00000 ;    C11-   C10-    C9-   H11
    13     14     15     16      3   30.33400    0.00000  -30.33400    0.00000    0.00000    0.00000 ;    C11-   C12-   C13-   C14
    13     14     15     20      3   30.33400    0.00000  -30.33400    0.00000    0.00000    0.00000 ;    C11-   C12-   C13-   C18
    13     14     17     18      3   30.33400    0.00000  -30.33400    0.00000    0.00000    0.00000 ;    C11-   C12-   C15-   C16
    13     14     17     51      3   30.33400    0.00000  -30.33400    0.00000    0.00000    0.00000 ;    C11-   C12-   C15-   H16
    14     13     10     45      3   30.33400    0.00000  -30.33400    0.00000    0.00000    0.00000 ;    C12-   C11-    C8-   H10
    14     13     12     47      3   30.33400    0.00000  -30.33400    0.00000    0.00000    0.00000 ;    C12-   C11-   C10-   H12
    14     15     16     48      3    0.00000    0.00000    0.00000    0.00000    0.00000    0.00000 ;    C12-   C13-   C14-   H13
    14     15     16     49      3    0.00000    0.00000    0.00000    0.00000    0.00000    0.00000 ;    C12-   C13-   C14-   H14
    14     15     16     50      3    0.00000    0.00000    0.00000    0.00000    0.00000    0.00000 ;    C12-   C13-   C14-   H15
    14     15     20     19      3   30.33400    0.00000  -30.33400    0.00000    0.00000    0.00000 ;    C12-   C13-   C18-   C17
    14     15     20     53      3   30.33400    0.00000  -30.33400    0.00000    0.00000    0.00000 ;    C12-   C13-   C18-   H18
    14     17     18     19      3   30.33400    0.00000  -30.33400    0.00000    0.00000    0.00000 ;    C12-   C15-   C16-   C17
    14     17     18     21      3   30.33400    0.00000  -30.33400    0.00000    0.00000    0.00000 ;    C12-   C15-   C16-    N2
    15     14     17     18      3   30.33400    0.00000  -30.33400    0.00000    0.00000    0.00000 ;    C13-   C12-   C15-   C16
    15     14     17     51      3   30.33400    0.00000  -30.33400    0.00000    0.00000    0.00000 ;    C13-   C12-   C15-   H16
    15     20     19     18      3   30.33400    0.00000  -30.33400    0.00000    0.00000    0.00000 ;    C13-   C18-   C17-   C16
    15     20     19     52      3   30.33400    0.00000  -30.33400    0.00000    0.00000    0.00000 ;    C13-   C18-   C17-   H17
    16     15     14     17      3   30.33400    0.00000  -30.33400    0.00000    0.00000    0.00000 ;    C14-   C13-   C12-   C15
    16     15     20     19      3   30.33400    0.00000  -30.33400    0.00000    0.00000    0.00000 ;    C14-   C13-   C18-   C17
    16     15     20     53      3   30.33400    0.00000  -30.33400    0.00000    0.00000    0.00000 ;    C14-   C13-   C18-   H18
    17     14     15     20      3   30.33400    0.00000  -30.33400    0.00000    0.00000    0.00000 ;    C15-   C12-   C13-   C18
    17     18     19     20      3   30.33400    0.00000  -30.33400    0.00000    0.00000    0.00000 ;    C15-   C16-   C17-   C18
    17     18     19     52      3   30.33400    0.00000  -30.33400    0.00000    0.00000    0.00000 ;    C15-   C16-   C17-   H17
    17     18     21     22      3    3.76560    0.00000   -3.76560    0.00000    0.00000    0.00000 ;    C15-   C16-    N2-   C19
    17     18     21     54      3    3.76560    0.00000   -3.76560    0.00000    0.00000    0.00000 ;    C15-   C16-    N2-   H19
    18     19     20     53      3   30.33400    0.00000  -30.33400    0.00000    0.00000    0.00000 ;    C16-   C17-   C18-   H18
    18     21     22     23      3   20.92000    0.00000  -20.92000    0.00000    0.00000    0.00000 ;    C16-    N2-   C19-    O2
    18     21     22     24      3   20.92000    0.00000  -20.92000    0.00000    0.00000    0.00000 ;    C16-    N2-   C19-   C20
    19     18     17     51      3   30.33400    0.00000  -30.33400    0.00000    0.00000    0.00000 ;    C17-   C16-   C15-   H16
    19     18     21     22      3    3.76560    0.00000   -3.76560    0.00000    0.00000    0.00000 ;    C17-   C16-    N2-   C19
    19     18     21     54      3    3.76560    0.00000   -3.76560    0.00000    0.00000    0.00000 ;    C17-   C16-    N2-   H19
    20     15     16     48      3    0.00000    0.00000    0.00000    0.00000    0.00000    0.00000 ;    C18-   C13-   C14-   H13
    20     15     16     49      3    0.00000    0.00000    0.00000    0.00000    0.00000    0.00000 ;    C18-   C13-   C14-   H14
    20     15     16     50      3    0.00000    0.00000    0.00000    0.00000    0.00000    0.00000 ;    C18-   C13-   C14-   H15
    20     19     18     21      3   30.33400    0.00000  -30.33400    0.00000    0.00000    0.00000 ;    C18-   C17-   C16-    N2
    21     18     17     51      3   30.33400    0.00000  -30.33400    0.00000    0.00000    0.00000 ;     N2-   C16-   C15-   H16
    21     18     19     52      3   30.33400    0.00000  -30.33400    0.00000    0.00000    0.00000 ;     N2-   C16-   C17-   H17
    21     22     24     25      3    8.36800    0.00000   -8.36800    0.00000    0.00000    0.00000 ;     N2-   C19-   C20-   C21
    21     22     24     29      3    8.36800    0.00000   -8.36800    0.00000    0.00000    0.00000 ;     N2-   C19-   C20-   C24
    22     24     25     26      3   30.33400    0.00000  -30.33400    0.00000    0.00000    0.00000 ;    C19-   C20-   C21-   C22
    22     24     25     55      3   30.33400    0.00000  -30.33400    0.00000    0.00000    0.00000 ;    C19-   C20-   C21-   H20
    22     24     29     28      3   30.33400    0.00000  -30.33400    0.00000    0.00000    0.00000 ;    C19-   C20-   C24-   C23
    22     24     29     57      3   30.33400    0.00000  -30.33400    0.00000    0.00000    0.00000 ;    C19-   C20-   C24-   H22
    23     22     21     54      3   29.28800   -8.36800  -20.92000    0.00000    0.00000    0.00000 ;     O2-   C19-    N2-   H19
    23     22     24     25      3    8.36800    0.00000   -8.36800    0.00000    0.00000    0.00000 ;     O2-   C19-   C20-   C21
    23     22     24     29      3    8.36800    0.00000   -8.36800    0.00000    0.00000    0.00000 ;     O2-   C19-   C20-   C24
    24     22     21     54      3   20.92000    0.00000  -20.92000    0.00000    0.00000    0.00000 ;    C20-   C19-    N2-   H19
    24     25     26     27      3   30.33400    0.00000  -30.33400    0.00000    0.00000    0.00000 ;    C20-   C21-   C22-    N3
    24     25     26     30      3   30.33400    0.00000  -30.33400    0.00000    0.00000    0.00000 ;    C20-   C21-   C22-    N4
    24     29     28     27      3   30.33400    0.00000  -30.33400    0.00000    0.00000    0.00000 ;    C20-   C24-   C23-    N3
    24     29     28     56      3   30.33400    0.00000  -30.33400    0.00000    0.00000    0.00000 ;    C20-   C24-   C23-   H21
    25     24     29     28      3   30.33400    0.00000  -30.33400    0.00000    0.00000    0.00000 ;    C21-   C20-   C24-   C23
    25     24     29     57      3   30.33400    0.00000  -30.33400    0.00000    0.00000    0.00000 ;    C21-   C20-   C24-   H22
    25     26     27     28      3   40.16640    0.00000  -40.16640    0.00000    0.00000    0.00000 ;    C21-   C22-    N3-   C23
    25     26     30     31      3    8.78640    0.00000   -8.78640    0.00000    0.00000    0.00000 ;    C21-   C22-    N4-   C25
    25     26     30     35      3    8.78640    0.00000   -8.78640    0.00000    0.00000    0.00000 ;    C21-   C22-    N4-   C28
    26     25     24     29      3   30.33400    0.00000  -30.33400    0.00000    0.00000    0.00000 ;    C22-   C21-   C20-   C24
    26     27     28     29      3   40.16640    0.00000  -40.16640    0.00000    0.00000    0.00000 ;    C22-    N3-   C23-   C24
    26     27     28     56      3   40.16640    0.00000  -40.16640    0.00000    0.00000    0.00000 ;    C22-    N3-   C23-   H21
    26     30     31     32      3    0.00000    0.00000    0.00000    0.00000    0.00000    0.00000 ;    C22-    N4-   C25-   C26
    26     30     31     58      3    0.00000    0.00000    0.00000    0.00000    0.00000    0.00000 ;    C22-    N4-   C25-   H23
    26     30     31     59      3    0.00000    0.00000    0.00000    0.00000    0.00000    0.00000 ;    C22-    N4-   C25-   H24
    26     30     35     34      3    0.00000    0.00000    0.00000    0.00000    0.00000    0.00000 ;    C22-    N4-   C28-   C27
    26     30     35     64      3    0.00000    0.00000    0.00000    0.00000    0.00000    0.00000 ;    C22-    N4-   C28-   H29
    26     30     35     65      3    0.00000    0.00000    0.00000    0.00000    0.00000    0.00000 ;    C22-    N4-   C28-   H30
    27     26     25     55      3   30.33400    0.00000  -30.33400    0.00000    0.00000    0.00000 ;     N3-   C22-   C21-   H20
    27     26     30     31      3    8.78640    0.00000   -8.78640    0.00000    0.00000    0.00000 ;     N3-   C22-    N4-   C25
    27     26     30     35      3    8.78640    0.00000   -8.78640    0.00000    0.00000    0.00000 ;     N3-   C22-    N4-   C28
    27     28     29     57      3   30.33400    0.00000  -30.33400    0.00000    0.00000    0.00000 ;     N3-   C23-   C24-   H22
    28     27     26     30      3   40.16640    0.00000  -40.16640    0.00000    0.00000    0.00000 ;    C23-    N3-   C22-    N4
    29     24     25     55      3   30.33400    0.00000  -30.33400    0.00000    0.00000    0.00000 ;    C24-   C20-   C21-   H20
    30     26     25     55      3   30.33400    0.00000  -30.33400    0.00000    0.00000    0.00000 ;     N4-   C22-   C21-   H20
    30     31     32     33      3    0.65084    1.95253    0.00000   -2.60338    0.00000    0.00000 ;     N4-   C25-   C26-    O3
    30     31     32     60      3    0.65084    1.95253    0.00000   -2.60338    0.00000    0.00000 ;     N4-   C25-   C26-   H25
    30     31     32     61      3    0.65084    1.95253    0.00000   -2.60338    0.00000    0.00000 ;     N4-   C25-   C26-   H26
    30     35     34     33      3    0.65084    1.95253    0.00000   -2.60338    0.00000    0.00000 ;     N4-   C28-   C27-    O3
    30     35     34     62      3    0.65084    1.95253    0.00000   -2.60338    0.00000    0.00000 ;     N4-   C28-   C27-   H27
    30     35     34     63      3    0.65084    1.95253    0.00000   -2.60338    0.00000    0.00000 ;     N4-   C28-   C27-   H28
    31     30     35     34      3    0.00000    0.00000    0.00000    0.00000    0.00000    0.00000 ;    C25-    N4-   C28-   C27
    31     30     35     64      3    0.00000    0.00000    0.00000    0.00000    0.00000    0.00000 ;    C25-    N4-   C28-   H29
    31     30     35     65      3    0.00000    0.00000    0.00000    0.00000    0.00000    0.00000 ;    C25-    N4-   C28-   H30
    31     32     33     34      3    2.43927    4.80742   -0.83680   -6.40989    0.00000    0.00000 ;    C25-   C26-    O3-   C27
    32     31     30     35      3    0.00000    0.00000    0.00000    0.00000    0.00000    0.00000 ;    C26-   C25-    N4-   C28
    32     33     34     35      3    2.43927    4.80742   -0.83680   -6.40989    0.00000    0.00000 ;    C26-    O3-   C27-   C28
    32     33     34     62      3    1.60387    4.81160    0.00000   -6.41547    0.00000    0.00000 ;    C26-    O3-   C27-   H27
    32     33     34     63      3    1.60387    4.81160    0.00000   -6.41547    0.00000    0.00000 ;    C26-    O3-   C27-   H28
    33     32     31     58      3    1.04600   -1.04600    0.00000    0.00000    0.00000    0.00000 ;     O3-   C26-   C25-   H23
    33     32     31     59      3    1.04600   -1.04600    0.00000    0.00000    0.00000    0.00000 ;     O3-   C26-   C25-   H24
    33     34     35     64      3    1.04600   -1.04600    0.00000    0.00000    0.00000    0.00000 ;     O3-   C27-   C28-   H29
    33     34     35     65      3    1.04600   -1.04600    0.00000    0.00000    0.00000    0.00000 ;     O3-   C27-   C28-   H30
    34     33     32     60      3    1.60387    4.81160    0.00000   -6.41547    0.00000    0.00000 ;    C27-    O3-   C26-   H25
    34     33     32     61      3    1.60387    4.81160    0.00000   -6.41547    0.00000    0.00000 ;    C27-    O3-   C26-   H26
    35     30     31     58      3    0.00000    0.00000    0.00000    0.00000    0.00000    0.00000 ;    C28-    N4-   C25-   H23
    35     30     31     59      3    0.00000    0.00000    0.00000    0.00000    0.00000    0.00000 ;    C28-    N4-   C25-   H24
    36      3      4     37      3    0.00000    0.00000    0.00000    0.00000    0.00000    0.00000 ;     H1-    N1-    C2-    H2
    36      3      4     38      3    0.00000    0.00000    0.00000    0.00000    0.00000    0.00000 ;     H1-    N1-    C2-    H3
    37      4      5     39      3    0.62760    1.88280    0.00000   -2.51040    0.00000    0.00000 ;     H2-    C2-    C3-    H4
    38      4      5     39      3    0.62760    1.88280    0.00000   -2.51040    0.00000    0.00000 ;     H3-    C2-    C3-    H4
    39      5      6     40      3    0.65084    1.95253    0.00000   -2.60338    0.00000    0.00000 ;     H4-    C3-    C4-    H5
    39      5      6     41      3    0.65084    1.95253    0.00000   -2.60338    0.00000    0.00000 ;     H4-    C3-    C4-    H6
    39      5      7     42      3    0.65084    1.95253    0.00000   -2.60338    0.00000    0.00000 ;     H4-    C3-    C5-    H7
    39      5      7     43      3    0.65084    1.95253    0.00000   -2.60338    0.00000    0.00000 ;     H4-    C3-    C5-    H8
    40      6      7     42      3    0.65084    1.95253    0.00000   -2.60338    0.00000    0.00000 ;     H5-    C4-    C5-    H7
    40      6      7     43      3    0.65084    1.95253    0.00000   -2.60338    0.00000    0.00000 ;     H5-    C4-    C5-    H8
    41      6      7     42      3    0.65084    1.95253    0.00000   -2.60338    0.00000    0.00000 ;     H6-    C4-    C5-    H7
    41      6      7     43      3    0.65084    1.95253    0.00000   -2.60338    0.00000    0.00000 ;     H6-    C4-    C5-    H8
    44      9     10     45      3   30.33400    0.00000  -30.33400    0.00000    0.00000    0.00000 ;     H9-    C7-    C8-   H10
    46     11     12     47      3   30.33400    0.00000  -30.33400    0.00000    0.00000    0.00000 ;    H11-    C9-   C10-   H12
    52     19     20     53      3   30.33400    0.00000  -30.33400    0.00000    0.00000    0.00000 ;    H17-   C17-   C18-   H18
    56     28     29     57      3   30.33400    0.00000  -30.33400    0.00000    0.00000    0.00000 ;    H21-   C23-   C24-   H22
    58     31     32     60      3    0.65084    1.95253    0.00000   -2.60338    0.00000    0.00000 ;    H23-   C25-   C26-   H25
    58     31     32     61      3    0.65084    1.95253    0.00000   -2.60338    0.00000    0.00000 ;    H23-   C25-   C26-   H26
    59     31     32     60      3    0.65084    1.95253    0.00000   -2.60338    0.00000    0.00000 ;    H24-   C25-   C26-   H25
    59     31     32     61      3    0.65084    1.95253    0.00000   -2.60338    0.00000    0.00000 ;    H24-   C25-   C26-   H26
    62     34     35     64      3    0.65084    1.95253    0.00000   -2.60338    0.00000    0.00000 ;    H27-   C27-   C28-   H29
    62     34     35     65      3    0.65084    1.95253    0.00000   -2.60338    0.00000    0.00000 ;    H27-   C27-   C28-   H30
    63     34     35     64      3    0.65084    1.95253    0.00000   -2.60338    0.00000    0.00000 ;    H28-   C27-   C28-   H29
    63     34     35     65      3    0.65084    1.95253    0.00000   -2.60338    0.00000    0.00000 ;    H28-   C27-   C28-   H30

[ dihedrals ] ; impropers
; treated as propers in GROMACS to use correct AMBER analytical function
;    I      j      k      l   func   phase     kd      pn
     1      2      3      8      1   180.00  43.93200   2 ;     O1-    C1-    N1-    C6
     2      4      3     36      1   180.00   4.60240   2 ;     C1-    C2-    N1-    H1
     2      9      8     11      1   180.00   4.60240   2 ;     C1-    C7-    C6-    C9
     8     10      9     44      1   180.00   4.60240   2 ;     C6-    C8-    C7-    H9
     8     12     11     46      1   180.00   4.60240   2 ;     C6-   C10-    C9-   H11
     9     13     10     45      1   180.00   4.60240   2 ;     C7-   C11-    C8-   H10
    10     12     13     14      1   180.00   4.60240   2 ;     C8-   C10-   C11-   C12
    11     13     12     47      1   180.00   4.60240   2 ;     C9-   C11-   C10-   H12
    15     17     14     13      1   180.00   4.60240   2 ;    C13-   C15-   C12-   C11
    15     19     20     53      1   180.00   4.60240   2 ;    C13-   C17-   C18-   H18
    16     20     15     14      1   180.00   4.60240   2 ;    C14-   C18-   C13-   C12
    17     19     18     21      1   180.00   4.60240   2 ;    C15-   C17-   C16-    N2
    18     14     17     51      1   180.00   4.60240   2 ;    C16-   C12-   C15-   H16
    18     20     19     52      1   180.00   4.60240   2 ;    C16-   C18-   C17-   H17
    22     18     21     54      1   180.00   4.60240   2 ;    C19-   C16-    N2-   H19
    22     25     24     29      1   180.00   4.60240   2 ;    C19-   C21-   C20-   C24
    24     21     22     23      1   180.00  43.93200   2 ;    C20-    N2-   C19-    O2
    24     26     25     55      1   180.00   4.60240   2 ;    C20-   C22-   C21-   H20
    24     28     29     57      1   180.00   4.60240   2 ;    C20-   C23-   C24-   H22
    25     27     26     30      1   180.00   4.60240   2 ;    C21-    N3-   C22-    N4
    29     56     28     27      1   180.00   4.60240   2 ;    C24-   H21-   C23-    N3
    31     35     30     26      1   180.00   4.60240   2 ;    C25-   C28-    N4-   C22

; Include Position restraint file
#ifdef POSRES
#include "posre_MOL.itp"
#endif
