
[ moleculetype ]
;name            nrexcl
 MOL              3

[ atoms ]
;   nr  type  resi  res  atom  cgnr     charge      mass       ; qtot   bond_type
     1   C3     1   MOL    C1    1    -0.054866     12.01000 ; qtot -0.055
     2   C3     1   MOL    C2    2     0.038765     12.01000 ; qtot -0.016
     3   CA     1   MOL    C3    3     0.441856     12.01000 ; qtot 0.426
     4   C3     1   MOL    C4    4     0.038765     12.01000 ; qtot 0.465
     5   C3     1   MOL    C5    5    -0.054866     12.01000 ; qtot 0.410
     6   CA     1   MOL    C6    6     1.099306     12.01000 ; qtot 1.509
     7   CA     1   MOL    C7    7    -0.734892     12.01000 ; qtot 0.774
     8   CA     1   MOL    C8    8     0.970907     12.01000 ; qtot 1.745
     9   C3     1   MOL    C9    9     0.364095     12.01000 ; qtot 2.109
    10   C3     1   MOL   C10   10     0.218323     12.01000 ; qtot 2.327
    11   OS     1   MOL    O1   11    -0.552917     16.00000 ; qtot 1.774
    12   NH     1   MOL    N1   12    -0.580960     14.01000 ; qtot 1.194
    13   NB     1   MOL    N2   13    -0.831010     14.01000 ; qtot 0.363
    14   NB     1   MOL    N3   14    -0.823100     14.01000 ; qtot -0.461
    15   NH     1   MOL    N4   15    -0.957881     14.01000 ; qtot -1.418
    16   CA     1   MOL   C11   16     0.967465     12.01000 ; qtot -0.451
    17   CA     1   MOL   C12   17    -0.663242     12.01000 ; qtot -1.114
    18   CA     1   MOL   C13   18     0.236234     12.01000 ; qtot -0.878
    19   CA     1   MOL   C14   19    -0.093056     12.01000 ; qtot -0.971
    20   CC     1   MOL   C15   20    -0.352648     12.01000 ; qtot -1.324
    21   CD     1   MOL   C16   21    -0.247478     12.01000 ; qtot -1.571
    22   NA     1   MOL    N5   22     0.105469     14.01000 ; qtot -1.466
    23   C3     1   MOL   C17   23    -0.084631     12.01000 ; qtot -1.550
    24   C3     1   MOL   C18   24    -0.015345     12.01000 ; qtot -1.566
    25   C3     1   MOL   C19   25    -0.041441     12.01000 ; qtot -1.607
    26   C3     1   MOL   C20   26    -0.041441     12.01000 ; qtot -1.649
    27   C3     1   MOL   C21   27    -0.015345     12.01000 ; qtot -1.664
    28   CA     1   MOL   C22   28     0.235419     12.01000 ; qtot -1.429
    29   NB     1   MOL    N6   29    -0.751928     14.01000 ; qtot -2.180
    30   HC     1   MOL    H1   30     0.039907      1.00800 ; qtot -2.141
    31   HC     1   MOL    H2   31     0.039907      1.00800 ; qtot -2.101
    32   H1     1   MOL    H3   32     0.054717      1.00800 ; qtot -2.046
    33   H1     1   MOL    H4   33     0.054717      1.00800 ; qtot -1.991
    34   H4     1   MOL    H5   34     0.099281      1.00800 ; qtot -1.892
    35   H1     1   MOL    H6   35     0.054717      1.00800 ; qtot -1.837
    36   H1     1   MOL    H7   36     0.054717      1.00800 ; qtot -1.782
    37   HC     1   MOL    H8   37     0.039907      1.00800 ; qtot -1.743
    38   HC     1   MOL    H9   38     0.039907      1.00800 ; qtot -1.703
    39   HA     1   MOL   H10   39     0.209697      1.00800 ; qtot -1.493
    40   H1     1   MOL   H11   40     0.004868      1.00800 ; qtot -1.488
    41   H1     1   MOL   H12   41     0.008547      1.00800 ; qtot -1.480
    42   H1     1   MOL   H13   42     0.008547      1.00800 ; qtot -1.471
    43   H1     1   MOL   H14   43     0.008547      1.00800 ; qtot -1.462
    44   HN     1   MOL   H15   44     0.423288      1.00800 ; qtot -1.039
    45   HA     1   MOL   H16   45     0.219338      1.00800 ; qtot -0.820
    46   HA     1   MOL   H17   46     0.195417      1.00800 ; qtot -0.624
    47   H4     1   MOL   H18   47     0.248781      1.00800 ; qtot -0.376
    48   H1     1   MOL   H19   48     0.077579      1.00800 ; qtot -0.298
    49   HC     1   MOL   H20   49     0.023861      1.00800 ; qtot -0.274
    50   HC     1   MOL   H21   50     0.023861      1.00800 ; qtot -0.250
    51   HC     1   MOL   H22   51     0.022801      1.00800 ; qtot -0.228
    52   HC     1   MOL   H23   52     0.022801      1.00800 ; qtot -0.205
    53   HC     1   MOL   H24   53     0.022801      1.00800 ; qtot -0.182
    54   HC     1   MOL   H25   54     0.022801      1.00800 ; qtot -0.159
    55   HC     1   MOL   H26   55     0.023861      1.00800 ; qtot -0.135
    56   HC     1   MOL   H27   56     0.023861      1.00800 ; qtot -0.111
    57   H4     1   MOL   H28   57     0.111404      1.00800 ; qtot 0.000

[ bonds ]
;   ai     aj funct   r             k
     1      2   1    1.5375e-01    2.5179e+05 ;     C1 - C2    
     1      9   1    1.5375e-01    2.5179e+05 ;     C1 - C9    
     1     30   1    1.0969e-01    2.7665e+05 ;     C1 - H1    
     1     31   1    1.0969e-01    2.7665e+05 ;     C1 - H2    
     2     12   1    1.4640e-01    2.7330e+05 ;     C2 - N1    
     2     32   1    1.0969e-01    2.7665e+05 ;     C2 - H3    
     2     33   1    1.0969e-01    2.7665e+05 ;     C2 - H4    
     3      7   1    1.3984e-01    3.8585e+05 ;     C3 - C7    
     3     13   1    1.3390e-01    4.0836e+05 ;     C3 - N2    
     3     34   1    1.0890e-01    2.8577e+05 ;     C3 - H5    
     4      5   1    1.5375e-01    2.5179e+05 ;     C4 - C5    
     4     12   1    1.4640e-01    2.7330e+05 ;     C4 - N1    
     4     35   1    1.0969e-01    2.7665e+05 ;     C4 - H6    
     4     36   1    1.0969e-01    2.7665e+05 ;     C4 - H7    
     5      9   1    1.5375e-01    2.5179e+05 ;     C5 - C9    
     5     37   1    1.0969e-01    2.7665e+05 ;     C5 - H8    
     5     38   1    1.0969e-01    2.7665e+05 ;     C5 - H9    
     6     12   1    1.3859e-01    3.4970e+05 ;     C6 - N1    
     6     13   1    1.3390e-01    4.0836e+05 ;     C6 - N2    
     6     14   1    1.3390e-01    4.0836e+05 ;     C6 - N3    
     7      8   1    1.3984e-01    3.8585e+05 ;     C7 - C8    
     7     39   1    1.0860e-01    2.8937e+05 ;     C7 - H10   
     8     14   1    1.3390e-01    4.0836e+05 ;     C8 - N3    
     8     15   1    1.3859e-01    3.4970e+05 ;     C8 - N4    
     9     11   1    1.4316e-01    2.5824e+05 ;     C9 - O1    
     9     40   1    1.0969e-01    2.7665e+05 ;     C9 - H11   
    10     11   1    1.4316e-01    2.5824e+05 ;    C10 - O1    
    10     41   1    1.0969e-01    2.7665e+05 ;    C10 - H12   
    10     42   1    1.0969e-01    2.7665e+05 ;    C10 - H13   
    10     43   1    1.0969e-01    2.7665e+05 ;    C10 - H14   
    15     16   1    1.3859e-01    3.4970e+05 ;     N4 - C11   
    15     44   1    1.0121e-01    3.3857e+05 ;     N4 - H15   
    16     17   1    1.3984e-01    3.8585e+05 ;    C11 - C12   
    16     29   1    1.3390e-01    4.0836e+05 ;    C11 - N6    
    17     18   1    1.3984e-01    3.8585e+05 ;    C12 - C13   
    17     45   1    1.0860e-01    2.8937e+05 ;    C12 - H16   
    18     19   1    1.3984e-01    3.8585e+05 ;    C13 - C14   
    18     22   1    1.3840e-01    3.5187e+05 ;    C13 - N5    
    19     20   1    1.4555e-01    3.2225e+05 ;    C14 - C15   
    19     28   1    1.3984e-01    3.8585e+05 ;    C14 - C22   
    20     21   1    1.3729e-01    4.1915e+05 ;    C15 - C16   
    20     46   1    1.0837e-01    2.9213e+05 ;    C15 - H17   
    21     22   1    1.3802e-01    3.5631e+05 ;    C16 - N5    
    21     47   1    1.0817e-01    2.9455e+05 ;    C16 - H18   
    22     23   1    1.4629e-01    2.7422e+05 ;     N5 - C17   
    23     24   1    1.5375e-01    2.5179e+05 ;    C17 - C18   
    23     27   1    1.5375e-01    2.5179e+05 ;    C17 - C21   
    23     48   1    1.0969e-01    2.7665e+05 ;    C17 - H19   
    24     25   1    1.5375e-01    2.5179e+05 ;    C18 - C19   
    24     49   1    1.0969e-01    2.7665e+05 ;    C18 - H20   
    24     50   1    1.0969e-01    2.7665e+05 ;    C18 - H21   
    25     26   1    1.5375e-01    2.5179e+05 ;    C19 - C20   
    25     51   1    1.0969e-01    2.7665e+05 ;    C19 - H22   
    25     52   1    1.0969e-01    2.7665e+05 ;    C19 - H23   
    26     27   1    1.5375e-01    2.5179e+05 ;    C20 - C21   
    26     53   1    1.0969e-01    2.7665e+05 ;    C20 - H24   
    26     54   1    1.0969e-01    2.7665e+05 ;    C20 - H25   
    27     55   1    1.0969e-01    2.7665e+05 ;    C21 - H26   
    27     56   1    1.0969e-01    2.7665e+05 ;    C21 - H27   
    28     29   1    1.3390e-01    4.0836e+05 ;    C22 - N6    
    28     57   1    1.0890e-01    2.8577e+05 ;    C22 - H28   

[ pairs ]
;   ai     aj    funct
     1      4      1 ;     C1 - C4    
     1      6      1 ;     C1 - C6    
     1     10      1 ;     C1 - C10   
     1     37      1 ;     C1 - H8    
     1     38      1 ;     C1 - H9    
     2      5      1 ;     C2 - C5    
     2     11      1 ;     C2 - O1    
     2     13      1 ;     C2 - N2    
     2     14      1 ;     C2 - N3    
     2     35      1 ;     C2 - H6    
     2     36      1 ;     C2 - H7    
     2     40      1 ;     C2 - H11   
     3     12      1 ;     C3 - N1    
     3     14      1 ;     C3 - N3    
     3     15      1 ;     C3 - N4    
     4     11      1 ;     C4 - O1    
     4     13      1 ;     C4 - N2    
     4     14      1 ;     C4 - N3    
     4     32      1 ;     C4 - H3    
     4     33      1 ;     C4 - H4    
     4     40      1 ;     C4 - H11   
     5      6      1 ;     C5 - C6    
     5     10      1 ;     C5 - C10   
     6      7      1 ;     C6 - C7    
     6     15      1 ;     C6 - N4    
     6     32      1 ;     C6 - H3    
     6     33      1 ;     C6 - H4    
     6     34      1 ;     C6 - H5    
     6     35      1 ;     C6 - H6    
     6     36      1 ;     C6 - H7    
     7     16      1 ;     C7 - C11   
     7     44      1 ;     C7 - H15   
     8     12      1 ;     C8 - N1    
     8     13      1 ;     C8 - N2    
     8     17      1 ;     C8 - C12   
     8     29      1 ;     C8 - N6    
     8     34      1 ;     C8 - H5    
     9     12      1 ;     C9 - N1    
     9     32      1 ;     C9 - H3    
     9     33      1 ;     C9 - H4    
     9     35      1 ;     C9 - H6    
     9     36      1 ;     C9 - H7    
     9     41      1 ;     C9 - H12   
     9     42      1 ;     C9 - H13   
     9     43      1 ;     C9 - H14   
    10     40      1 ;    C10 - H11   
    11     37      1 ;     O1 - H8    
    11     38      1 ;     O1 - H9    
    12     37      1 ;     N1 - H8    
    12     38      1 ;     N1 - H9    
    13     39      1 ;     N2 - H10   
    14     16      1 ;     N3 - C11   
    14     39      1 ;     N3 - H10   
    14     44      1 ;     N3 - H15   
    15     18      1 ;     N4 - C13   
    15     28      1 ;     N4 - C22   
    15     39      1 ;     N4 - H10   
    15     45      1 ;     N4 - H16   
    16     19      1 ;    C11 - C14   
    16     22      1 ;    C11 - N5    
    16     57      1 ;    C11 - H28   
    17     20      1 ;    C12 - C15   
    17     21      1 ;    C12 - C16   
    17     23      1 ;    C12 - C17   
    17     28      1 ;    C12 - C22   
    17     44      1 ;    C12 - H15   
    18     24      1 ;    C13 - C18   
    18     27      1 ;    C13 - C21   
    18     29      1 ;    C13 - N6    
    18     46      1 ;    C13 - H17   
    18     47      1 ;    C13 - H18   
    18     48      1 ;    C13 - H19   
    18     57      1 ;    C13 - H28   
    19     23      1 ;    C14 - C17   
    19     45      1 ;    C14 - H16   
    19     47      1 ;    C14 - H18   
    20     23      1 ;    C15 - C17   
    20     29      1 ;    C15 - N6    
    20     57      1 ;    C15 - H28   
    21     24      1 ;    C16 - C18   
    21     27      1 ;    C16 - C21   
    21     28      1 ;    C16 - C22   
    21     48      1 ;    C16 - H19   
    22     25      1 ;     N5 - C19   
    22     26      1 ;     N5 - C20   
    22     28      1 ;     N5 - C22   
    22     45      1 ;     N5 - H16   
    22     46      1 ;     N5 - H17   
    22     49      1 ;     N5 - H20   
    22     50      1 ;     N5 - H21   
    22     55      1 ;     N5 - H26   
    22     56      1 ;     N5 - H27   
    23     47      1 ;    C17 - H18   
    23     51      1 ;    C17 - H22   
    23     52      1 ;    C17 - H23   
    23     53      1 ;    C17 - H24   
    23     54      1 ;    C17 - H25   
    24     53      1 ;    C18 - H24   
    24     54      1 ;    C18 - H25   
    24     55      1 ;    C18 - H26   
    24     56      1 ;    C18 - H27   
    25     48      1 ;    C19 - H19   
    25     55      1 ;    C19 - H26   
    25     56      1 ;    C19 - H27   
    26     48      1 ;    C20 - H19   
    26     49      1 ;    C20 - H20   
    26     50      1 ;    C20 - H21   
    27     49      1 ;    C21 - H20   
    27     50      1 ;    C21 - H21   
    27     51      1 ;    C21 - H22   
    27     52      1 ;    C21 - H23   
    28     46      1 ;    C22 - H17   
    29     44      1 ;     N6 - H15   
    29     45      1 ;     N6 - H16   
    30      5      1 ;     H1 - C5    
    30     11      1 ;     H1 - O1    
    30     12      1 ;     H1 - N1    
    30     32      1 ;     H1 - H3    
    30     33      1 ;     H1 - H4    
    30     40      1 ;     H1 - H11   
    31      5      1 ;     H2 - C5    
    31     11      1 ;     H2 - O1    
    31     12      1 ;     H2 - N1    
    31     32      1 ;     H2 - H3    
    31     33      1 ;     H2 - H4    
    31     40      1 ;     H2 - H11   
    34     39      1 ;     H5 - H10   
    35     37      1 ;     H6 - H8    
    35     38      1 ;     H6 - H9    
    36     37      1 ;     H7 - H8    
    36     38      1 ;     H7 - H9    
    37     40      1 ;     H8 - H11   
    38     40      1 ;     H9 - H11   
    46     47      1 ;    H17 - H18   
    48     49      1 ;    H19 - H20   
    48     50      1 ;    H19 - H21   
    48     55      1 ;    H19 - H26   
    48     56      1 ;    H19 - H27   
    49     51      1 ;    H20 - H22   
    49     52      1 ;    H20 - H23   
    50     51      1 ;    H21 - H22   
    50     52      1 ;    H21 - H23   
    51     53      1 ;    H22 - H24   
    51     54      1 ;    H22 - H25   
    52     53      1 ;    H23 - H24   
    52     54      1 ;    H23 - H25   
    53     55      1 ;    H24 - H26   
    53     56      1 ;    H24 - H27   
    54     55      1 ;    H25 - H26   
    54     56      1 ;    H25 - H27   

[ angles ]
;   ai     aj     ak    funct   theta         cth
     1      2     12      1    1.1046e+02    5.5396e+02 ;     C1 - C2     - N1    
     1      2     32      1    1.0956e+02    3.8828e+02 ;     C1 - C2     - H3    
     1      2     33      1    1.0956e+02    3.8828e+02 ;     C1 - C2     - H4    
     1      9      5      1    1.1151e+02    5.2635e+02 ;     C1 - C9     - C5    
     1      9     11      1    1.0797e+02    5.6902e+02 ;     C1 - C9     - O1    
     1      9     40      1    1.0956e+02    3.8828e+02 ;     C1 - C9     - H11   
     2      1      9      1    1.1151e+02    5.2635e+02 ;     C2 - C1     - C9    
     2      1     30      1    1.0980e+02    3.8744e+02 ;     C2 - C1     - H1    
     2      1     31      1    1.0980e+02    3.8744e+02 ;     C2 - C1     - H2    
     2     12      4      1    1.1451e+02    5.2886e+02 ;     C2 - N1     - C4    
     2     12      6      1    1.1998e+02    5.3053e+02 ;     C2 - N1     - C6    
     3      7      8      1    1.2002e+02    5.5731e+02 ;     C3 - C7     - C8    
     3      7     39      1    1.1988e+02    4.0334e+02 ;     C3 - C7     - H10   
     3     13      6      1    1.1722e+02    5.7153e+02 ;     C3 - N2     - C6    
     4      5      9      1    1.1151e+02    5.2635e+02 ;     C4 - C5     - C9    
     4      5     37      1    1.0980e+02    3.8744e+02 ;     C4 - C5     - H8    
     4      5     38      1    1.0980e+02    3.8744e+02 ;     C4 - C5     - H9    
     4     12      6      1    1.1998e+02    5.3053e+02 ;     C4 - N1     - C6    
     5      4     12      1    1.1046e+02    5.5396e+02 ;     C5 - C4     - N1    
     5      4     35      1    1.0956e+02    3.8828e+02 ;     C5 - C4     - H6    
     5      4     36      1    1.0956e+02    3.8828e+02 ;     C5 - C4     - H7    
     5      9     11      1    1.0797e+02    5.6902e+02 ;     C5 - C9     - O1    
     5      9     40      1    1.0956e+02    3.8828e+02 ;     C5 - C9     - H11   
     6     14      8      1    1.1722e+02    5.7153e+02 ;     C6 - N3     - C8    
     7      3     13      1    1.2294e+02    5.7572e+02 ;     C7 - C3     - N2    
     7      3     34      1    1.2034e+02    4.0250e+02 ;     C7 - C3     - H5    
     7      8     14      1    1.2294e+02    5.7572e+02 ;     C7 - C8     - N3    
     7      8     15      1    1.2095e+02    5.7153e+02 ;     C7 - C8     - N4    
     8      7     39      1    1.1988e+02    4.0334e+02 ;     C8 - C7     - H10   
     8     15     16      1    1.2746e+02    5.2969e+02 ;     C8 - N4     - C11   
     8     15     44      1    1.1607e+02    4.0501e+02 ;     C8 - N4     - H15   
     9      1     30      1    1.0980e+02    3.8744e+02 ;     C9 - C1     - H1    
     9      1     31      1    1.0980e+02    3.8744e+02 ;     C9 - C1     - H2    
     9      5     37      1    1.0980e+02    3.8744e+02 ;     C9 - C5     - H8    
     9      5     38      1    1.0980e+02    3.8744e+02 ;     C9 - C5     - H9    
     9     11     10      1    1.1248e+02    5.2467e+02 ;     C9 - O1     - C10   
    11      9     40      1    1.0978e+02    4.2509e+02 ;     O1 - C9     - H11   
    11     10     41      1    1.0978e+02    4.2509e+02 ;     O1 - C10    - H12   
    11     10     42      1    1.0978e+02    4.2509e+02 ;     O1 - C10    - H13   
    11     10     43      1    1.0978e+02    4.2509e+02 ;     O1 - C10    - H14   
    12      2     32      1    1.0979e+02    4.1505e+02 ;     N1 - C2     - H3    
    12      2     33      1    1.0979e+02    4.1505e+02 ;     N1 - C2     - H4    
    12      4     35      1    1.0979e+02    4.1505e+02 ;     N1 - C4     - H6    
    12      4     36      1    1.0979e+02    4.1505e+02 ;     N1 - C4     - H7    
    12      6     13      1    1.1694e+02    6.0835e+02 ;     N1 - C6     - N2    
    12      6     14      1    1.1694e+02    6.0835e+02 ;     N1 - C6     - N3    
    13      3     34      1    1.1603e+02    4.3430e+02 ;     N2 - C3     - H5    
    13      6     14      1    1.2726e+02    5.9329e+02 ;     N2 - C6     - N3    
    14      8     15      1    1.1694e+02    6.0835e+02 ;     N3 - C8     - N4    
    15     16     17      1    1.2095e+02    5.7153e+02 ;     N4 - C11    - C12   
    15     16     29      1    1.1694e+02    6.0835e+02 ;     N4 - C11    - N6    
    16     15     44      1    1.1607e+02    4.0501e+02 ;    C11 - N4     - H15   
    16     17     18      1    1.2002e+02    5.5731e+02 ;    C11 - C12    - C13   
    16     17     45      1    1.1988e+02    4.0334e+02 ;    C11 - C12    - H16   
    16     29     28      1    1.1722e+02    5.7153e+02 ;    C11 - N6     - C22   
    17     16     29      1    1.2294e+02    5.7572e+02 ;    C12 - C11    - N6    
    17     18     19      1    1.2002e+02    5.5731e+02 ;    C12 - C13    - C14   
    17     18     22      1    1.1834e+02    5.7823e+02 ;    C12 - C13    - N5    
    18     17     45      1    1.1988e+02    4.0334e+02 ;    C13 - C12    - H16   
    18     19     20      1    1.2079e+02    5.4392e+02 ;    C13 - C14    - C15   
    18     19     28      1    1.2002e+02    5.5731e+02 ;    C13 - C14    - C22   
    18     22     21      1    1.1315e+02    5.6400e+02 ;    C13 - N5     - C16   
    18     22     23      1    1.2436e+02    5.2133e+02 ;    C13 - N5     - C17   
    19     18     22      1    1.1834e+02    5.7823e+02 ;    C14 - C13    - N5    
    19     20     21      1    1.1351e+02    5.6568e+02 ;    C14 - C15    - C16   
    19     20     46      1    1.2404e+02    3.8325e+02 ;    C14 - C15    - H17   
    19     28     29      1    1.2294e+02    5.7572e+02 ;    C14 - C22    - N6    
    19     28     57      1    1.2034e+02    4.0250e+02 ;    C14 - C22    - H28   
    20     19     28      1    1.2079e+02    5.4392e+02 ;    C15 - C14    - C22   
    20     21     22      1    1.0699e+02    6.1421e+02 ;    C15 - C16    - N5    
    20     21     47      1    1.2848e+02    3.9581e+02 ;    C15 - C16    - H18   
    21     20     46      1    1.2176e+02    4.0585e+02 ;    C16 - C15    - H17   
    21     22     23      1    1.2646e+02    5.1798e+02 ;    C16 - N5     - C17   
    22     21     47      1    1.2053e+02    4.1673e+02 ;     N5 - C16    - H18   
    22     23     24      1    1.1288e+02    5.4810e+02 ;     N5 - C17    - C18   
    22     23     27      1    1.1288e+02    5.4810e+02 ;     N5 - C17    - C21   
    22     23     48      1    1.0878e+02    4.1673e+02 ;     N5 - C17    - H19   
    23     24     25      1    1.1151e+02    5.2635e+02 ;    C17 - C18    - C19   
    23     24     49      1    1.0980e+02    3.8744e+02 ;    C17 - C18    - H20   
    23     24     50      1    1.0980e+02    3.8744e+02 ;    C17 - C18    - H21   
    23     27     26      1    1.1151e+02    5.2635e+02 ;    C17 - C21    - C20   
    23     27     55      1    1.0980e+02    3.8744e+02 ;    C17 - C21    - H26   
    23     27     56      1    1.0980e+02    3.8744e+02 ;    C17 - C21    - H27   
    24     23     27      1    1.1151e+02    5.2635e+02 ;    C18 - C17    - C21   
    24     23     48      1    1.0956e+02    3.8828e+02 ;    C18 - C17    - H19   
    24     25     26      1    1.1151e+02    5.2635e+02 ;    C18 - C19    - C20   
    24     25     51      1    1.0980e+02    3.8744e+02 ;    C18 - C19    - H22   
    24     25     52      1    1.0980e+02    3.8744e+02 ;    C18 - C19    - H23   
    25     24     49      1    1.0980e+02    3.8744e+02 ;    C19 - C18    - H20   
    25     24     50      1    1.0980e+02    3.8744e+02 ;    C19 - C18    - H21   
    25     26     27      1    1.1151e+02    5.2635e+02 ;    C19 - C20    - C21   
    25     26     53      1    1.0980e+02    3.8744e+02 ;    C19 - C20    - H24   
    25     26     54      1    1.0980e+02    3.8744e+02 ;    C19 - C20    - H25   
    26     25     51      1    1.0980e+02    3.8744e+02 ;    C20 - C19    - H22   
    26     25     52      1    1.0980e+02    3.8744e+02 ;    C20 - C19    - H23   
    26     27     55      1    1.0980e+02    3.8744e+02 ;    C20 - C21    - H26   
    26     27     56      1    1.0980e+02    3.8744e+02 ;    C20 - C21    - H27   
    27     23     48      1    1.0956e+02    3.8828e+02 ;    C21 - C17    - H19   
    27     26     53      1    1.0980e+02    3.8744e+02 ;    C21 - C20    - H24   
    27     26     54      1    1.0980e+02    3.8744e+02 ;    C21 - C20    - H25   
    29     28     57      1    1.1603e+02    4.3430e+02 ;     N6 - C22    - H28   
    30      1     31      1    1.0758e+02    3.2970e+02 ;     H1 - C1     - H2    
    32      2     33      1    1.0846e+02    3.2803e+02 ;     H3 - C2     - H4    
    35      4     36      1    1.0846e+02    3.2803e+02 ;     H6 - C4     - H7    
    37      5     38      1    1.0758e+02    3.2970e+02 ;     H8 - C5     - H9    
    41     10     42      1    1.0846e+02    3.2803e+02 ;    H12 - C10    - H13   
    41     10     43      1    1.0846e+02    3.2803e+02 ;    H12 - C10    - H14   
    42     10     43      1    1.0846e+02    3.2803e+02 ;    H13 - C10    - H14   
    49     24     50      1    1.0758e+02    3.2970e+02 ;    H20 - C18    - H21   
    51     25     52      1    1.0758e+02    3.2970e+02 ;    H22 - C19    - H23   
    53     26     54      1    1.0758e+02    3.2970e+02 ;    H24 - C20    - H25   
    55     27     56      1    1.0758e+02    3.2970e+02 ;    H26 - C21    - H27   

[ dihedrals ] ; propers
; treated as RBs in GROMACS to use combine multiple AMBER torsions per quartet
;    I      j      k      l   func    C0         C1         C2         C3         C4         C5
     1      2     12      4      3    0.00000    0.00000    0.00000    0.00000    0.00000    0.00000 ;     C1-    C2-    N1-    C4
     1      2     12      6      3    0.00000    0.00000    0.00000    0.00000    0.00000    0.00000 ;     C1-    C2-    N1-    C6
     1      9      5      4      3    3.68192    3.09616   -2.09200   -3.01248    0.00000    0.00000 ;     C1-    C9-    C5-    C4
     1      9      5     37      3    0.66944    2.00832    0.00000   -2.67776    0.00000    0.00000 ;     C1-    C9-    C5-    H8
     1      9      5     38      3    0.66944    2.00832    0.00000   -2.67776    0.00000    0.00000 ;     C1-    C9-    C5-    H9
     1      9     11     10      3    2.43927    4.80742   -0.83680   -6.40989    0.00000    0.00000 ;     C1-    C9-    O1-   C10
     2      1      9      5      3    3.68192    3.09616   -2.09200   -3.01248    0.00000    0.00000 ;     C2-    C1-    C9-    C5
     2      1      9     11      3    0.65084    1.95253    0.00000   -2.60338    0.00000    0.00000 ;     C2-    C1-    C9-    O1
     2      1      9     40      3    0.65084    1.95253    0.00000   -2.60338    0.00000    0.00000 ;     C2-    C1-    C9-   H11
     2     12      4      5      3    0.00000    0.00000    0.00000    0.00000    0.00000    0.00000 ;     C2-    N1-    C4-    C5
     2     12      4     35      3    0.00000    0.00000    0.00000    0.00000    0.00000    0.00000 ;     C2-    N1-    C4-    H6
     2     12      4     36      3    0.00000    0.00000    0.00000    0.00000    0.00000    0.00000 ;     C2-    N1-    C4-    H7
     2     12      6     13      3    8.78640    0.00000   -8.78640    0.00000    0.00000    0.00000 ;     C2-    N1-    C6-    N2
     2     12      6     14      3    8.78640    0.00000   -8.78640    0.00000    0.00000    0.00000 ;     C2-    N1-    C6-    N3
     3      7      8     14      3   30.33400    0.00000  -30.33400    0.00000    0.00000    0.00000 ;     C3-    C7-    C8-    N3
     3      7      8     15      3   30.33400    0.00000  -30.33400    0.00000    0.00000    0.00000 ;     C3-    C7-    C8-    N4
     3     13      6     12      3   40.16640    0.00000  -40.16640    0.00000    0.00000    0.00000 ;     C3-    N2-    C6-    N1
     3     13      6     14      3   40.16640    0.00000  -40.16640    0.00000    0.00000    0.00000 ;     C3-    N2-    C6-    N3
     4      5      9     11      3    0.65084    1.95253    0.00000   -2.60338    0.00000    0.00000 ;     C4-    C5-    C9-    O1
     4      5      9     40      3    0.65084    1.95253    0.00000   -2.60338    0.00000    0.00000 ;     C4-    C5-    C9-   H11
     4     12      2     32      3    0.00000    0.00000    0.00000    0.00000    0.00000    0.00000 ;     C4-    N1-    C2-    H3
     4     12      2     33      3    0.00000    0.00000    0.00000    0.00000    0.00000    0.00000 ;     C4-    N1-    C2-    H4
     4     12      6     13      3    8.78640    0.00000   -8.78640    0.00000    0.00000    0.00000 ;     C4-    N1-    C6-    N2
     4     12      6     14      3    8.78640    0.00000   -8.78640    0.00000    0.00000    0.00000 ;     C4-    N1-    C6-    N3
     5      4     12      6      3    0.00000    0.00000    0.00000    0.00000    0.00000    0.00000 ;     C5-    C4-    N1-    C6
     5      9     11     10      3    2.43927    4.80742   -0.83680   -6.40989    0.00000    0.00000 ;     C5-    C9-    O1-   C10
     6     12      2     32      3    0.00000    0.00000    0.00000    0.00000    0.00000    0.00000 ;     C6-    N1-    C2-    H3
     6     12      2     33      3    0.00000    0.00000    0.00000    0.00000    0.00000    0.00000 ;     C6-    N1-    C2-    H4
     6     12      4     35      3    0.00000    0.00000    0.00000    0.00000    0.00000    0.00000 ;     C6-    N1-    C4-    H6
     6     12      4     36      3    0.00000    0.00000    0.00000    0.00000    0.00000    0.00000 ;     C6-    N1-    C4-    H7
     6     13      3      7      3   40.16640    0.00000  -40.16640    0.00000    0.00000    0.00000 ;     C6-    N2-    C3-    C7
     6     13      3     34      3   40.16640    0.00000  -40.16640    0.00000    0.00000    0.00000 ;     C6-    N2-    C3-    H5
     6     14      8      7      3   40.16640    0.00000  -40.16640    0.00000    0.00000    0.00000 ;     C6-    N3-    C8-    C7
     6     14      8     15      3   40.16640    0.00000  -40.16640    0.00000    0.00000    0.00000 ;     C6-    N3-    C8-    N4
     7      8     15     16      3    8.78640    0.00000   -8.78640    0.00000    0.00000    0.00000 ;     C7-    C8-    N4-   C11
     7      8     15     44      3    8.78640    0.00000   -8.78640    0.00000    0.00000    0.00000 ;     C7-    C8-    N4-   H15
     8      7      3     13      3   30.33400    0.00000  -30.33400    0.00000    0.00000    0.00000 ;     C8-    C7-    C3-    N2
     8      7      3     34      3   30.33400    0.00000  -30.33400    0.00000    0.00000    0.00000 ;     C8-    C7-    C3-    H5
     8     14      6     12      3   40.16640    0.00000  -40.16640    0.00000    0.00000    0.00000 ;     C8-    N3-    C6-    N1
     8     14      6     13      3   40.16640    0.00000  -40.16640    0.00000    0.00000    0.00000 ;     C8-    N3-    C6-    N2
     8     15     16     17      3    8.78640    0.00000   -8.78640    0.00000    0.00000    0.00000 ;     C8-    N4-   C11-   C12
     8     15     16     29      3    8.78640    0.00000   -8.78640    0.00000    0.00000    0.00000 ;     C8-    N4-   C11-    N6
     9      1      2     12      3    0.65084    1.95253    0.00000   -2.60338    0.00000    0.00000 ;     C9-    C1-    C2-    N1
     9      1      2     32      3    0.65084    1.95253    0.00000   -2.60338    0.00000    0.00000 ;     C9-    C1-    C2-    H3
     9      1      2     33      3    0.65084    1.95253    0.00000   -2.60338    0.00000    0.00000 ;     C9-    C1-    C2-    H4
     9      5      4     12      3    0.65084    1.95253    0.00000   -2.60338    0.00000    0.00000 ;     C9-    C5-    C4-    N1
     9      5      4     35      3    0.65084    1.95253    0.00000   -2.60338    0.00000    0.00000 ;     C9-    C5-    C4-    H6
     9      5      4     36      3    0.65084    1.95253    0.00000   -2.60338    0.00000    0.00000 ;     C9-    C5-    C4-    H7
     9     11     10     41      3    1.60387    4.81160    0.00000   -6.41547    0.00000    0.00000 ;     C9-    O1-   C10-   H12
     9     11     10     42      3    1.60387    4.81160    0.00000   -6.41547    0.00000    0.00000 ;     C9-    O1-   C10-   H13
     9     11     10     43      3    1.60387    4.81160    0.00000   -6.41547    0.00000    0.00000 ;     C9-    O1-   C10-   H14
    10     11      9     40      3    1.60387    4.81160    0.00000   -6.41547    0.00000    0.00000 ;    C10-    O1-    C9-   H11
    11      9      5     37      3    1.04600   -1.04600    0.00000    0.00000    0.00000    0.00000 ;     O1-    C9-    C5-    H8
    11      9      5     38      3    1.04600   -1.04600    0.00000    0.00000    0.00000    0.00000 ;     O1-    C9-    C5-    H9
    12      4      5     37      3    0.65084    1.95253    0.00000   -2.60338    0.00000    0.00000 ;     N1-    C4-    C5-    H8
    12      4      5     38      3    0.65084    1.95253    0.00000   -2.60338    0.00000    0.00000 ;     N1-    C4-    C5-    H9
    13      3      7     39      3   30.33400    0.00000  -30.33400    0.00000    0.00000    0.00000 ;     N2-    C3-    C7-   H10
    14      8      7     39      3   30.33400    0.00000  -30.33400    0.00000    0.00000    0.00000 ;     N3-    C8-    C7-   H10
    14      8     15     16      3    8.78640    0.00000   -8.78640    0.00000    0.00000    0.00000 ;     N3-    C8-    N4-   C11
    14      8     15     44      3    8.78640    0.00000   -8.78640    0.00000    0.00000    0.00000 ;     N3-    C8-    N4-   H15
    15      8      7     39      3   30.33400    0.00000  -30.33400    0.00000    0.00000    0.00000 ;     N4-    C8-    C7-   H10
    15     16     17     18      3   30.33400    0.00000  -30.33400    0.00000    0.00000    0.00000 ;     N4-   C11-   C12-   C13
    15     16     17     45      3   30.33400    0.00000  -30.33400    0.00000    0.00000    0.00000 ;     N4-   C11-   C12-   H16
    15     16     29     28      3   40.16640    0.00000  -40.16640    0.00000    0.00000    0.00000 ;     N4-   C11-    N6-   C22
    16     17     18     19      3   30.33400    0.00000  -30.33400    0.00000    0.00000    0.00000 ;    C11-   C12-   C13-   C14
    16     17     18     22      3   30.33400    0.00000  -30.33400    0.00000    0.00000    0.00000 ;    C11-   C12-   C13-    N5
    16     29     28     19      3   40.16640    0.00000  -40.16640    0.00000    0.00000    0.00000 ;    C11-    N6-   C22-   C14
    16     29     28     57      3   40.16640    0.00000  -40.16640    0.00000    0.00000    0.00000 ;    C11-    N6-   C22-   H28
    17     16     15     44      3    8.78640    0.00000   -8.78640    0.00000    0.00000    0.00000 ;    C12-   C11-    N4-   H15
    17     16     29     28      3   40.16640    0.00000  -40.16640    0.00000    0.00000    0.00000 ;    C12-   C11-    N6-   C22
    17     18     19     20      3   30.33400    0.00000  -30.33400    0.00000    0.00000    0.00000 ;    C12-   C13-   C14-   C15
    17     18     19     28      3   30.33400    0.00000  -30.33400    0.00000    0.00000    0.00000 ;    C12-   C13-   C14-   C22
    17     18     22     21      3    2.51040    0.00000   -2.51040    0.00000    0.00000    0.00000 ;    C12-   C13-    N5-   C16
    17     18     22     23      3    2.51040    0.00000   -2.51040    0.00000    0.00000    0.00000 ;    C12-   C13-    N5-   C17
    18     17     16     29      3   30.33400    0.00000  -30.33400    0.00000    0.00000    0.00000 ;    C13-   C12-   C11-    N6
    18     19     20     21      3    5.85760    0.00000   -5.85760    0.00000    0.00000    0.00000 ;    C13-   C14-   C15-   C16
    18     19     20     46      3    5.85760    0.00000   -5.85760    0.00000    0.00000    0.00000 ;    C13-   C14-   C15-   H17
    18     19     28     29      3   30.33400    0.00000  -30.33400    0.00000    0.00000    0.00000 ;    C13-   C14-   C22-    N6
    18     19     28     57      3   30.33400    0.00000  -30.33400    0.00000    0.00000    0.00000 ;    C13-   C14-   C22-   H28
    18     22     21     20      3   14.22560    0.00000  -14.22560    0.00000    0.00000    0.00000 ;    C13-    N5-   C16-   C15
    18     22     21     47      3   14.22560    0.00000  -14.22560    0.00000    0.00000    0.00000 ;    C13-    N5-   C16-   H18
    18     22     23     24      3    0.00000    0.00000    0.00000    0.00000    0.00000    0.00000 ;    C13-    N5-   C17-   C18
    18     22     23     27      3    0.00000    0.00000    0.00000    0.00000    0.00000    0.00000 ;    C13-    N5-   C17-   C21
    18     22     23     48      3    0.00000    0.00000    0.00000    0.00000    0.00000    0.00000 ;    C13-    N5-   C17-   H19
    19     18     17     45      3   30.33400    0.00000  -30.33400    0.00000    0.00000    0.00000 ;    C14-   C13-   C12-   H16
    19     18     22     21      3    2.51040    0.00000   -2.51040    0.00000    0.00000    0.00000 ;    C14-   C13-    N5-   C16
    19     18     22     23      3    2.51040    0.00000   -2.51040    0.00000    0.00000    0.00000 ;    C14-   C13-    N5-   C17
    19     20     21     22      3   33.47200    0.00000  -33.47200    0.00000    0.00000    0.00000 ;    C14-   C15-   C16-    N5
    19     20     21     47      3   33.47200    0.00000  -33.47200    0.00000    0.00000    0.00000 ;    C14-   C15-   C16-   H18
    20     19     18     22      3   30.33400    0.00000  -30.33400    0.00000    0.00000    0.00000 ;    C15-   C14-   C13-    N5
    20     19     28     29      3   30.33400    0.00000  -30.33400    0.00000    0.00000    0.00000 ;    C15-   C14-   C22-    N6
    20     19     28     57      3   30.33400    0.00000  -30.33400    0.00000    0.00000    0.00000 ;    C15-   C14-   C22-   H28
    20     21     22     23      3   14.22560    0.00000  -14.22560    0.00000    0.00000    0.00000 ;    C15-   C16-    N5-   C17
    21     20     19     28      3    5.85760    0.00000   -5.85760    0.00000    0.00000    0.00000 ;    C16-   C15-   C14-   C22
    21     22     23     24      3    0.00000    0.00000    0.00000    0.00000    0.00000    0.00000 ;    C16-    N5-   C17-   C18
    21     22     23     27      3    0.00000    0.00000    0.00000    0.00000    0.00000    0.00000 ;    C16-    N5-   C17-   C21
    21     22     23     48      3    0.00000    0.00000    0.00000    0.00000    0.00000    0.00000 ;    C16-    N5-   C17-   H19
    22     18     17     45      3   30.33400    0.00000  -30.33400    0.00000    0.00000    0.00000 ;     N5-   C13-   C12-   H16
    22     18     19     28      3   30.33400    0.00000  -30.33400    0.00000    0.00000    0.00000 ;     N5-   C13-   C14-   C22
    22     21     20     46      3   33.47200    0.00000  -33.47200    0.00000    0.00000    0.00000 ;     N5-   C16-   C15-   H17
    22     23     24     25      3    0.65084    1.95253    0.00000   -2.60338    0.00000    0.00000 ;     N5-   C17-   C18-   C19
    22     23     24     49      3    0.65084    1.95253    0.00000   -2.60338    0.00000    0.00000 ;     N5-   C17-   C18-   H20
    22     23     24     50      3    0.65084    1.95253    0.00000   -2.60338    0.00000    0.00000 ;     N5-   C17-   C18-   H21
    22     23     27     26      3    0.65084    1.95253    0.00000   -2.60338    0.00000    0.00000 ;     N5-   C17-   C21-   C20
    22     23     27     55      3    0.65084    1.95253    0.00000   -2.60338    0.00000    0.00000 ;     N5-   C17-   C21-   H26
    22     23     27     56      3    0.65084    1.95253    0.00000   -2.60338    0.00000    0.00000 ;     N5-   C17-   C21-   H27
    23     22     21     47      3   14.22560    0.00000  -14.22560    0.00000    0.00000    0.00000 ;    C17-    N5-   C16-   H18
    23     24     25     26      3    3.68192    3.09616   -2.09200   -3.01248    0.00000    0.00000 ;    C17-   C18-   C19-   C20
    23     24     25     51      3    0.66944    2.00832    0.00000   -2.67776    0.00000    0.00000 ;    C17-   C18-   C19-   H22
    23     24     25     52      3    0.66944    2.00832    0.00000   -2.67776    0.00000    0.00000 ;    C17-   C18-   C19-   H23
    23     27     26     25      3    3.68192    3.09616   -2.09200   -3.01248    0.00000    0.00000 ;    C17-   C21-   C20-   C19
    23     27     26     53      3    0.66944    2.00832    0.00000   -2.67776    0.00000    0.00000 ;    C17-   C21-   C20-   H24
    23     27     26     54      3    0.66944    2.00832    0.00000   -2.67776    0.00000    0.00000 ;    C17-   C21-   C20-   H25
    24     23     27     26      3    3.68192    3.09616   -2.09200   -3.01248    0.00000    0.00000 ;    C18-   C17-   C21-   C20
    24     23     27     55      3    0.66944    2.00832    0.00000   -2.67776    0.00000    0.00000 ;    C18-   C17-   C21-   H26
    24     23     27     56      3    0.66944    2.00832    0.00000   -2.67776    0.00000    0.00000 ;    C18-   C17-   C21-   H27
    24     25     26     27      3    3.68192    3.09616   -2.09200   -3.01248    0.00000    0.00000 ;    C18-   C19-   C20-   C21
    24     25     26     53      3    0.66944    2.00832    0.00000   -2.67776    0.00000    0.00000 ;    C18-   C19-   C20-   H24
    24     25     26     54      3    0.66944    2.00832    0.00000   -2.67776    0.00000    0.00000 ;    C18-   C19-   C20-   H25
    25     24     23     27      3    3.68192    3.09616   -2.09200   -3.01248    0.00000    0.00000 ;    C19-   C18-   C17-   C21
    25     24     23     48      3    0.65084    1.95253    0.00000   -2.60338    0.00000    0.00000 ;    C19-   C18-   C17-   H19
    25     26     27     55      3    0.66944    2.00832    0.00000   -2.67776    0.00000    0.00000 ;    C19-   C20-   C21-   H26
    25     26     27     56      3    0.66944    2.00832    0.00000   -2.67776    0.00000    0.00000 ;    C19-   C20-   C21-   H27
    26     25     24     49      3    0.66944    2.00832    0.00000   -2.67776    0.00000    0.00000 ;    C20-   C19-   C18-   H20
    26     25     24     50      3    0.66944    2.00832    0.00000   -2.67776    0.00000    0.00000 ;    C20-   C19-   C18-   H21
    26     27     23     48      3    0.65084    1.95253    0.00000   -2.60338    0.00000    0.00000 ;    C20-   C21-   C17-   H19
    27     23     24     49      3    0.66944    2.00832    0.00000   -2.67776    0.00000    0.00000 ;    C21-   C17-   C18-   H20
    27     23     24     50      3    0.66944    2.00832    0.00000   -2.67776    0.00000    0.00000 ;    C21-   C17-   C18-   H21
    27     26     25     51      3    0.66944    2.00832    0.00000   -2.67776    0.00000    0.00000 ;    C21-   C20-   C19-   H22
    27     26     25     52      3    0.66944    2.00832    0.00000   -2.67776    0.00000    0.00000 ;    C21-   C20-   C19-   H23
    28     19     20     46      3    5.85760    0.00000   -5.85760    0.00000    0.00000    0.00000 ;    C22-   C14-   C15-   H17
    29     16     15     44      3    8.78640    0.00000   -8.78640    0.00000    0.00000    0.00000 ;     N6-   C11-    N4-   H15
    29     16     17     45      3   30.33400    0.00000  -30.33400    0.00000    0.00000    0.00000 ;     N6-   C11-   C12-   H16
    30      1      2     12      3    0.65084    1.95253    0.00000   -2.60338    0.00000    0.00000 ;     H1-    C1-    C2-    N1
    30      1      2     32      3    0.65084    1.95253    0.00000   -2.60338    0.00000    0.00000 ;     H1-    C1-    C2-    H3
    30      1      2     33      3    0.65084    1.95253    0.00000   -2.60338    0.00000    0.00000 ;     H1-    C1-    C2-    H4
    30      1      9      5      3    0.66944    2.00832    0.00000   -2.67776    0.00000    0.00000 ;     H1-    C1-    C9-    C5
    30      1      9     11      3    1.04600   -1.04600    0.00000    0.00000    0.00000    0.00000 ;     H1-    C1-    C9-    O1
    30      1      9     40      3    0.65084    1.95253    0.00000   -2.60338    0.00000    0.00000 ;     H1-    C1-    C9-   H11
    31      1      2     12      3    0.65084    1.95253    0.00000   -2.60338    0.00000    0.00000 ;     H2-    C1-    C2-    N1
    31      1      2     32      3    0.65084    1.95253    0.00000   -2.60338    0.00000    0.00000 ;     H2-    C1-    C2-    H3
    31      1      2     33      3    0.65084    1.95253    0.00000   -2.60338    0.00000    0.00000 ;     H2-    C1-    C2-    H4
    31      1      9      5      3    0.66944    2.00832    0.00000   -2.67776    0.00000    0.00000 ;     H2-    C1-    C9-    C5
    31      1      9     11      3    1.04600   -1.04600    0.00000    0.00000    0.00000    0.00000 ;     H2-    C1-    C9-    O1
    31      1      9     40      3    0.65084    1.95253    0.00000   -2.60338    0.00000    0.00000 ;     H2-    C1-    C9-   H11
    34      3      7     39      3   30.33400    0.00000  -30.33400    0.00000    0.00000    0.00000 ;     H5-    C3-    C7-   H10
    35      4      5     37      3    0.65084    1.95253    0.00000   -2.60338    0.00000    0.00000 ;     H6-    C4-    C5-    H8
    35      4      5     38      3    0.65084    1.95253    0.00000   -2.60338    0.00000    0.00000 ;     H6-    C4-    C5-    H9
    36      4      5     37      3    0.65084    1.95253    0.00000   -2.60338    0.00000    0.00000 ;     H7-    C4-    C5-    H8
    36      4      5     38      3    0.65084    1.95253    0.00000   -2.60338    0.00000    0.00000 ;     H7-    C4-    C5-    H9
    37      5      9     40      3    0.65084    1.95253    0.00000   -2.60338    0.00000    0.00000 ;     H8-    C5-    C9-   H11
    38      5      9     40      3    0.65084    1.95253    0.00000   -2.60338    0.00000    0.00000 ;     H9-    C5-    C9-   H11
    46     20     21     47      3   33.47200    0.00000  -33.47200    0.00000    0.00000    0.00000 ;    H17-   C15-   C16-   H18
    48     23     24     49      3    0.65084    1.95253    0.00000   -2.60338    0.00000    0.00000 ;    H19-   C17-   C18-   H20
    48     23     24     50      3    0.65084    1.95253    0.00000   -2.60338    0.00000    0.00000 ;    H19-   C17-   C18-   H21
    48     23     27     55      3    0.65084    1.95253    0.00000   -2.60338    0.00000    0.00000 ;    H19-   C17-   C21-   H26
    48     23     27     56      3    0.65084    1.95253    0.00000   -2.60338    0.00000    0.00000 ;    H19-   C17-   C21-   H27
    49     24     25     51      3    0.62760    1.88280    0.00000   -2.51040    0.00000    0.00000 ;    H20-   C18-   C19-   H22
    49     24     25     52      3    0.62760    1.88280    0.00000   -2.51040    0.00000    0.00000 ;    H20-   C18-   C19-   H23
    50     24     25     51      3    0.62760    1.88280    0.00000   -2.51040    0.00000    0.00000 ;    H21-   C18-   C19-   H22
    50     24     25     52      3    0.62760    1.88280    0.00000   -2.51040    0.00000    0.00000 ;    H21-   C18-   C19-   H23
    51     25     26     53      3    0.62760    1.88280    0.00000   -2.51040    0.00000    0.00000 ;    H22-   C19-   C20-   H24
    51     25     26     54      3    0.62760    1.88280    0.00000   -2.51040    0.00000    0.00000 ;    H22-   C19-   C20-   H25
    52     25     26     53      3    0.62760    1.88280    0.00000   -2.51040    0.00000    0.00000 ;    H23-   C19-   C20-   H24
    52     25     26     54      3    0.62760    1.88280    0.00000   -2.51040    0.00000    0.00000 ;    H23-   C19-   C20-   H25
    53     26     27     55      3    0.62760    1.88280    0.00000   -2.51040    0.00000    0.00000 ;    H24-   C20-   C21-   H26
    53     26     27     56      3    0.62760    1.88280    0.00000   -2.51040    0.00000    0.00000 ;    H24-   C20-   C21-   H27
    54     26     27     55      3    0.62760    1.88280    0.00000   -2.51040    0.00000    0.00000 ;    H25-   C20-   C21-   H26
    54     26     27     56      3    0.62760    1.88280    0.00000   -2.51040    0.00000    0.00000 ;    H25-   C20-   C21-   H27

[ dihedrals ] ; impropers
; treated as propers in GROMACS to use correct AMBER analytical function
;    I      j      k      l   func   phase     kd      pn
     2      4     12      6      1   180.00   4.60240   2 ;     C2-    C4-    N1-    C6
     3      8      7     39      1   180.00   4.60240   2 ;     C3-    C8-    C7-   H10
     7     14      8     15      1   180.00   4.60240   2 ;     C7-    N3-    C8-    N4
     7     34      3     13      1   180.00   4.60240   2 ;     C7-    H5-    C3-    N2
     8     16     15     44      1   180.00   4.60240   2 ;     C8-   C11-    N4-   H15
    13     14      6     12      1   180.00  43.93200   2 ;     N2-    N3-    C6-    N1
    16     18     17     45      1   180.00   4.60240   2 ;    C11-   C13-   C12-   H16
    17     19     18     22      1   180.00   4.60240   2 ;    C12-   C14-   C13-    N5
    17     29     16     15      1   180.00   4.60240   2 ;    C12-    N6-   C11-    N4
    18     28     19     20      1   180.00   4.60240   2 ;    C13-   C22-   C14-   C15
    19     21     20     46      1   180.00   4.60240   2 ;    C14-   C16-   C15-   H17
    19     57     28     29      1   180.00   4.60240   2 ;    C14-   H28-   C22-    N6
    20     47     21     22      1   180.00   4.60240   2 ;    C15-   H18-   C16-    N5
    23     18     22     21      1   180.00   4.60240   2 ;    C17-   C13-    N5-   C16

; Include Position restraint file
#ifdef POSRES
#include "posre_MOL.itp"
#endif
