
[ moleculetype ]
;name            nrexcl
 MOL              3

[ atoms ]
;   nr  type  resi  res  atom  cgnr     charge      mass       ; qtot   bond_type
     1   CX     1   MOL    C1    1    -0.333452     12.01000 ; qtot -0.333
     2   CX     1   MOL    C2    2     0.092717     12.01000 ; qtot -0.241
     3   CX     1   MOL    C3    3    -0.333452     12.01000 ; qtot -0.574
     4   CA     1   MOL    C4    4    -0.091916     12.01000 ; qtot -0.666
     5   CA     1   MOL    C5    5    -0.034526     12.01000 ; qtot -0.701
     6   CA     1   MOL    C6    6    -0.337218     12.01000 ; qtot -1.038
     7   CA     1   MOL    C7    7     0.434008     12.01000 ; qtot -0.604
     8   CA     1   MOL    C8    8    -0.337218     12.01000 ; qtot -0.941
     9   CA     1   MOL    C9    9    -0.034526     12.01000 ; qtot -0.976
    10   CA     1   MOL   C10   10     0.074145     12.01000 ; qtot -0.901
    11   CA     1   MOL   C11   11     0.005506     12.01000 ; qtot -0.896
    12   CA     1   MOL   C12   12    -0.291053     12.01000 ; qtot -1.187
    13   CA     1   MOL   C13   13    -0.331422     12.01000 ; qtot -1.518
    14   CA     1   MOL   C14   14     0.209274     12.01000 ; qtot -1.309
    15   CA     1   MOL   C15   15     0.273931     12.01000 ; qtot -1.035
    16   OS     1   MOL    O1   16    -0.339788     16.00000 ; qtot -1.375
    17   CC     1   MOL   C16   17     0.380899     12.01000 ; qtot -0.994
    18   CD     1   MOL   C17   18    -0.593536     12.01000 ; qtot -1.588
    19    C     1   MOL   C18   19     0.865582     12.01000 ; qtot -0.722
    20    O     1   MOL    O2   20    -0.595144     16.00000 ; qtot -1.317
    21    N     1   MOL    N1   21    -0.536041     14.01000 ; qtot -1.853
    22   C3     1   MOL   C19   22    -0.005527     12.01000 ; qtot -1.859
    23   NH     1   MOL    N2   23    -0.242374     14.01000 ; qtot -2.101
    24   S6     1   MOL    S1   24     1.146266     32.06000 ; qtot -0.955
    25    O     1   MOL    O3   25    -0.600794     16.00000 ; qtot -1.556
    26    O     1   MOL    O4   26    -0.600794     16.00000 ; qtot -2.156
    27   C3     1   MOL   C20   27    -0.343510     12.01000 ; qtot -2.500
    28    F     1   MOL    F1   28    -0.223121     19.00000 ; qtot -2.723
    29   C3     1   MOL   C21   29    -0.052223     12.01000 ; qtot -2.775
    30   C3     1   MOL   C22   30     0.541874     12.01000 ; qtot -2.233
    31   OH     1   MOL    O5   31    -0.739445     16.00000 ; qtot -2.973
    32   HC     1   MOL    H1   32     0.154466      1.00800 ; qtot -2.818
    33   HC     1   MOL    H2   33     0.154466      1.00800 ; qtot -2.664
    34   HC     1   MOL    H3   34     0.061128      1.00800 ; qtot -2.603
    35   HC     1   MOL    H4   35     0.154466      1.00800 ; qtot -2.448
    36   HC     1   MOL    H5   36     0.154466      1.00800 ; qtot -2.294
    37   HA     1   MOL    H6   37     0.145151      1.00800 ; qtot -2.149
    38   HA     1   MOL    H7   38     0.192237      1.00800 ; qtot -1.956
    39   HA     1   MOL    H8   39     0.192237      1.00800 ; qtot -1.764
    40   HA     1   MOL    H9   40     0.145151      1.00800 ; qtot -1.619
    41   HA     1   MOL   H10   41     0.196609      1.00800 ; qtot -1.422
    42   HA     1   MOL   H11   42     0.186718      1.00800 ; qtot -1.236
    43   HN     1   MOL   H12   43     0.284083      1.00800 ; qtot -0.952
    44   H1     1   MOL   H13   44     0.063398      1.00800 ; qtot -0.888
    45   H1     1   MOL   H14   45     0.063398      1.00800 ; qtot -0.825
    46   H1     1   MOL   H15   46     0.063398      1.00800 ; qtot -0.762
    47   H1     1   MOL   H16   47     0.124837      1.00800 ; qtot -0.637
    48   H1     1   MOL   H17   48     0.124837      1.00800 ; qtot -0.512
    49   H1     1   MOL   H18   49     0.124837      1.00800 ; qtot -0.387
    50   H1     1   MOL   H19   50     0.067694      1.00800 ; qtot -0.319
    51   H1     1   MOL   H20   51     0.067694      1.00800 ; qtot -0.252
    52   H1     1   MOL   H21   52    -0.091939      1.00800 ; qtot -0.344
    53   H1     1   MOL   H22   53    -0.091939      1.00800 ; qtot -0.435
    54   HO     1   MOL   H23   54     0.435482      1.00800 ; qtot 0.000

[ bonds ]
;   ai     aj funct   r             k
     1      2   1    1.5080e-01    2.7489e+05 ;     C1 - C2    
     1      3   1    1.5080e-01    2.7489e+05 ;     C1 - C3    
     1     32   1    1.0870e-01    2.8811e+05 ;     C1 - H1    
     1     33   1    1.0870e-01    2.8811e+05 ;     C1 - H2    
     2      3   1    1.5080e-01    2.7489e+05 ;     C2 - C3    
     2     10   1    1.4960e-01    2.8493e+05 ;     C2 - C10   
     2     34   1    1.0870e-01    2.8811e+05 ;     C2 - H3    
     3     35   1    1.0870e-01    2.8811e+05 ;     C3 - H4    
     3     36   1    1.0870e-01    2.8811e+05 ;     C3 - H5    
     4      5   1    1.3984e-01    3.8585e+05 ;     C4 - C5    
     4      9   1    1.3984e-01    3.8585e+05 ;     C4 - C9    
     4     17   1    1.4555e-01    3.2225e+05 ;     C4 - C16   
     5      6   1    1.3984e-01    3.8585e+05 ;     C5 - C6    
     5     37   1    1.0860e-01    2.8937e+05 ;     C5 - H6    
     6      7   1    1.3984e-01    3.8585e+05 ;     C6 - C7    
     6     38   1    1.0860e-01    2.8937e+05 ;     C6 - H7    
     7      8   1    1.3984e-01    3.8585e+05 ;     C7 - C8    
     7     28   1    1.3490e-01    2.9941e+05 ;     C7 - F1    
     8      9   1    1.3984e-01    3.8585e+05 ;     C8 - C9    
     8     39   1    1.0860e-01    2.8937e+05 ;     C8 - H8    
     9     40   1    1.0860e-01    2.8937e+05 ;     C9 - H9    
    10     11   1    1.3984e-01    3.8585e+05 ;    C10 - C11   
    10     13   1    1.3984e-01    3.8585e+05 ;    C10 - C13   
    11     12   1    1.3984e-01    3.8585e+05 ;    C11 - C12   
    11     23   1    1.3859e-01    3.4970e+05 ;    C11 - N2    
    12     15   1    1.3984e-01    3.8585e+05 ;    C12 - C15   
    12     41   1    1.0860e-01    2.8937e+05 ;    C12 - H10   
    13     14   1    1.3984e-01    3.8585e+05 ;    C13 - C14   
    13     42   1    1.0860e-01    2.8937e+05 ;    C13 - H11   
    14     15   1    1.3984e-01    3.8585e+05 ;    C14 - C15   
    14     18   1    1.4555e-01    3.2225e+05 ;    C14 - C17   
    15     16   1    1.3696e-01    3.1514e+05 ;    C15 - O1    
    16     17   1    1.3620e-01    3.2309e+05 ;     O1 - C16   
    17     18   1    1.3729e-01    4.1915e+05 ;    C16 - C17   
    18     19   1    1.4676e-01    3.1045e+05 ;    C17 - C18   
    19     20   1    1.2183e-01    5.3363e+05 ;    C18 - O2    
    19     21   1    1.3789e-01    3.5782e+05 ;    C18 - N1    
    21     22   1    1.4619e-01    2.7506e+05 ;     N1 - C19   
    21     43   1    1.0129e-01    3.3740e+05 ;     N1 - H12   
    22     44   1    1.0969e-01    2.7665e+05 ;    C19 - H13   
    22     45   1    1.0969e-01    2.7665e+05 ;    C19 - H14   
    22     46   1    1.0969e-01    2.7665e+05 ;    C19 - H15   
    23     24   1    1.6975e-01    2.4803e+05 ;     N2 - S1    
    23     29   1    1.4640e-01    2.7330e+05 ;     N2 - C21   
    24     25   1    1.4533e-01    4.2903e+05 ;     S1 - O3    
    24     26   1    1.4533e-01    4.2903e+05 ;     S1 - O4    
    24     27   1    1.8075e-01    1.9539e+05 ;     S1 - C20   
    27     47   1    1.0969e-01    2.7665e+05 ;    C20 - H16   
    27     48   1    1.0969e-01    2.7665e+05 ;    C20 - H17   
    27     49   1    1.0969e-01    2.7665e+05 ;    C20 - H18   
    29     30   1    1.5375e-01    2.5179e+05 ;    C21 - C22   
    29     50   1    1.0969e-01    2.7665e+05 ;    C21 - H19   
    29     51   1    1.0969e-01    2.7665e+05 ;    C21 - H20   
    30     31   1    1.4233e-01    2.6501e+05 ;    C22 - O5    
    30     52   1    1.0969e-01    2.7665e+05 ;    C22 - H21   
    30     53   1    1.0969e-01    2.7665e+05 ;    C22 - H22   
    31     54   1    9.7300e-02    3.1079e+05 ;     O5 - H23   

[ pairs ]
;   ai     aj    funct
     1     11      1 ;     C1 - C11   
     1     13      1 ;     C1 - C13   
     2     12      1 ;     C2 - C12   
     2     14      1 ;     C2 - C14   
     2     23      1 ;     C2 - N2    
     2     42      1 ;     C2 - H11   
     3     11      1 ;     C3 - C11   
     3     13      1 ;     C3 - C13   
     4      7      1 ;     C4 - C7    
     4     14      1 ;     C4 - C14   
     4     15      1 ;     C4 - C15   
     4     19      1 ;     C4 - C18   
     4     38      1 ;     C4 - H7    
     4     39      1 ;     C4 - H8    
     5      8      1 ;     C5 - C8    
     5     16      1 ;     C5 - O1    
     5     18      1 ;     C5 - C17   
     5     28      1 ;     C5 - F1    
     5     40      1 ;     C5 - H9    
     6      9      1 ;     C6 - C9    
     6     17      1 ;     C6 - C16   
     6     39      1 ;     C6 - H8    
     7     37      1 ;     C7 - H6    
     7     40      1 ;     C7 - H9    
     8     17      1 ;     C8 - C16   
     8     38      1 ;     C8 - H7    
     9     16      1 ;     C9 - O1    
     9     18      1 ;     C9 - C17   
     9     28      1 ;     C9 - F1    
     9     37      1 ;     C9 - H6    
    10     15      1 ;    C10 - C15   
    10     18      1 ;    C10 - C17   
    10     24      1 ;    C10 - S1    
    10     29      1 ;    C10 - C21   
    10     35      1 ;    C10 - H4    
    10     36      1 ;    C10 - H5    
    10     41      1 ;    C10 - H10   
    11     14      1 ;    C11 - C14   
    11     16      1 ;    C11 - O1    
    11     25      1 ;    C11 - O3    
    11     26      1 ;    C11 - O4    
    11     27      1 ;    C11 - C20   
    11     30      1 ;    C11 - C22   
    11     34      1 ;    C11 - H3    
    11     42      1 ;    C11 - H11   
    11     50      1 ;    C11 - H19   
    11     51      1 ;    C11 - H20   
    12     13      1 ;    C12 - C13   
    12     17      1 ;    C12 - C16   
    12     18      1 ;    C12 - C17   
    12     24      1 ;    C12 - S1    
    12     29      1 ;    C12 - C21   
    13     16      1 ;    C13 - O1    
    13     17      1 ;    C13 - C16   
    13     19      1 ;    C13 - C18   
    13     23      1 ;    C13 - N2    
    13     34      1 ;    C13 - H3    
    14     20      1 ;    C14 - O2    
    14     21      1 ;    C14 - N1    
    14     41      1 ;    C14 - H10   
    15     19      1 ;    C15 - C18   
    15     23      1 ;    C15 - N2    
    15     42      1 ;    C15 - H11   
    16     19      1 ;     O1 - C18   
    16     41      1 ;     O1 - H10   
    17     20      1 ;    C16 - O2    
    17     21      1 ;    C16 - N1    
    17     37      1 ;    C16 - H6    
    17     40      1 ;    C16 - H9    
    18     22      1 ;    C17 - C19   
    18     42      1 ;    C17 - H11   
    18     43      1 ;    C17 - H12   
    19     44      1 ;    C18 - H13   
    19     45      1 ;    C18 - H14   
    19     46      1 ;    C18 - H15   
    20     22      1 ;     O2 - C19   
    20     43      1 ;     O2 - H12   
    23     31      1 ;     N2 - O5    
    23     41      1 ;     N2 - H10   
    23     47      1 ;     N2 - H16   
    23     48      1 ;     N2 - H17   
    23     49      1 ;     N2 - H18   
    23     52      1 ;     N2 - H21   
    23     53      1 ;     N2 - H22   
    24     30      1 ;     S1 - C22   
    24     50      1 ;     S1 - H19   
    24     51      1 ;     S1 - H20   
    25     29      1 ;     O3 - C21   
    25     47      1 ;     O3 - H16   
    25     48      1 ;     O3 - H17   
    25     49      1 ;     O3 - H18   
    26     29      1 ;     O4 - C21   
    26     47      1 ;     O4 - H16   
    26     48      1 ;     O4 - H17   
    26     49      1 ;     O4 - H18   
    27     29      1 ;    C20 - C21   
    28     38      1 ;     F1 - H7    
    28     39      1 ;     F1 - H8    
    29     54      1 ;    C21 - H23   
    31     50      1 ;     O5 - H19   
    31     51      1 ;     O5 - H20   
    32     10      1 ;     H1 - C10   
    32     34      1 ;     H1 - H3    
    32     35      1 ;     H1 - H4    
    32     36      1 ;     H1 - H5    
    33     10      1 ;     H2 - C10   
    33     34      1 ;     H2 - H3    
    33     35      1 ;     H2 - H4    
    33     36      1 ;     H2 - H5    
    34     35      1 ;     H3 - H4    
    34     36      1 ;     H3 - H5    
    37     38      1 ;     H6 - H7    
    39     40      1 ;     H8 - H9    
    43     44      1 ;    H12 - H13   
    43     45      1 ;    H12 - H14   
    43     46      1 ;    H12 - H15   
    50     52      1 ;    H19 - H21   
    50     53      1 ;    H19 - H22   
    51     52      1 ;    H20 - H21   
    51     53      1 ;    H20 - H22   
    52     54      1 ;    H21 - H23   
    53     54      1 ;    H22 - H23   

[ angles ]
;   ai     aj     ak    funct   theta         cth
     1      2      3      1    6.0000e+01    7.3136e+02 ;     C1 - C2     - C3    
     1      2     10      1    1.2184e+02    5.1547e+02 ;     C1 - C2     - C10   
     1      2     34      1    1.1769e+02    3.8158e+02 ;     C1 - C2     - H3    
     1      3      2      1    6.0000e+01    7.3136e+02 ;     C1 - C3     - C2    
     1      3     35      1    1.1769e+02    3.8158e+02 ;     C1 - C3     - H4    
     1      3     36      1    1.1769e+02    3.8158e+02 ;     C1 - C3     - H5    
     2      1      3      1    6.0000e+01    7.3136e+02 ;     C2 - C1     - C3    
     2      1     32      1    1.1769e+02    3.8158e+02 ;     C2 - C1     - H1    
     2      1     33      1    1.1769e+02    3.8158e+02 ;     C2 - C1     - H2    
     2      3     35      1    1.1769e+02    3.8158e+02 ;     C2 - C3     - H4    
     2      3     36      1    1.1769e+02    3.8158e+02 ;     C2 - C3     - H5    
     2     10     11      1    1.2095e+02    5.3555e+02 ;     C2 - C10    - C11   
     2     10     13      1    1.2095e+02    5.3555e+02 ;     C2 - C10    - C13   
     3      1     32      1    1.1769e+02    3.8158e+02 ;     C3 - C1     - H1    
     3      1     33      1    1.1769e+02    3.8158e+02 ;     C3 - C1     - H2    
     3      2     10      1    1.2184e+02    5.1547e+02 ;     C3 - C2     - C10   
     3      2     34      1    1.1769e+02    3.8158e+02 ;     C3 - C2     - H3    
     4      5      6      1    1.2002e+02    5.5731e+02 ;     C4 - C5     - C6    
     4      5     37      1    1.1988e+02    4.0334e+02 ;     C4 - C5     - H6    
     4      9      8      1    1.2002e+02    5.5731e+02 ;     C4 - C9     - C8    
     4      9     40      1    1.1988e+02    4.0334e+02 ;     C4 - C9     - H9    
     4     17     16      1    1.1475e+02    5.8158e+02 ;     C4 - C16    - O1    
     4     17     18      1    1.1351e+02    5.6568e+02 ;     C4 - C16    - C17   
     5      4      9      1    1.2002e+02    5.5731e+02 ;     C5 - C4     - C9    
     5      4     17      1    1.2079e+02    5.4392e+02 ;     C5 - C4     - C16   
     5      6      7      1    1.2002e+02    5.5731e+02 ;     C5 - C6     - C7    
     5      6     38      1    1.1988e+02    4.0334e+02 ;     C5 - C6     - H7    
     6      5     37      1    1.1988e+02    4.0334e+02 ;     C6 - C5     - H6    
     6      7      8      1    1.2002e+02    5.5731e+02 ;     C6 - C7     - C8    
     6      7     28      1    1.1896e+02    5.6149e+02 ;     C6 - C7     - F1    
     7      6     38      1    1.1988e+02    4.0334e+02 ;     C7 - C6     - H7    
     7      8      9      1    1.2002e+02    5.5731e+02 ;     C7 - C8     - C9    
     7      8     39      1    1.1988e+02    4.0334e+02 ;     C7 - C8     - H8    
     8      7     28      1    1.1896e+02    5.6149e+02 ;     C8 - C7     - F1    
     8      9     40      1    1.1988e+02    4.0334e+02 ;     C8 - C9     - H9    
     9      4     17      1    1.2079e+02    5.4392e+02 ;     C9 - C4     - C16   
     9      8     39      1    1.1988e+02    4.0334e+02 ;     C9 - C8     - H8    
    10      2     34      1    1.1372e+02    3.9079e+02 ;    C10 - C2     - H3    
    10     11     12      1    1.2002e+02    5.5731e+02 ;    C10 - C11    - C12   
    10     11     23      1    1.2095e+02    5.7153e+02 ;    C10 - C11    - N2    
    10     13     14      1    1.2002e+02    5.5731e+02 ;    C10 - C13    - C14   
    10     13     42      1    1.1988e+02    4.0334e+02 ;    C10 - C13    - H11   
    11     10     13      1    1.2002e+02    5.5731e+02 ;    C11 - C10    - C13   
    11     12     15      1    1.2002e+02    5.5731e+02 ;    C11 - C12    - C15   
    11     12     41      1    1.1988e+02    4.0334e+02 ;    C11 - C12    - H10   
    11     23     24      1    1.2285e+02    5.1463e+02 ;    C11 - N2     - S1    
    11     23     29      1    1.1998e+02    5.3053e+02 ;    C11 - N2     - C21   
    12     11     23      1    1.2095e+02    5.7153e+02 ;    C12 - C11    - N2    
    12     15     14      1    1.2002e+02    5.5731e+02 ;    C12 - C15    - C14   
    12     15     16      1    1.1920e+02    5.8241e+02 ;    C12 - C15    - O1    
    13     14     15      1    1.2002e+02    5.5731e+02 ;    C13 - C14    - C15   
    13     14     18      1    1.2079e+02    5.4392e+02 ;    C13 - C14    - C17   
    14     13     42      1    1.1988e+02    4.0334e+02 ;    C14 - C13    - H11   
    14     15     16      1    1.1920e+02    5.8241e+02 ;    C14 - C15    - O1    
    14     18     17      1    1.1351e+02    5.6568e+02 ;    C14 - C17    - C16   
    14     18     19      1    1.2295e+02    5.2718e+02 ;    C14 - C17    - C18   
    15     12     41      1    1.1988e+02    4.0334e+02 ;    C15 - C12    - H10   
    15     14     18      1    1.2079e+02    5.4392e+02 ;    C15 - C14    - C17   
    15     16     17      1    1.1308e+02    5.4810e+02 ;    C15 - O1     - C16   
    16     17     18      1    1.2030e+02    5.8660e+02 ;     O1 - C16    - C17   
    17     18     19      1    1.2135e+02    5.4476e+02 ;    C16 - C17    - C18   
    18     19     20      1    1.2393e+02    5.7823e+02 ;    C17 - C18    - O2    
    18     19     21      1    1.1270e+02    5.7823e+02 ;    C17 - C18    - N1    
    19     21     22      1    1.2069e+02    5.3053e+02 ;    C18 - N1     - C19   
    19     21     43      1    1.1755e+02    4.0417e+02 ;    C18 - N1     - H12   
    20     19     21      1    1.2305e+02    6.2091e+02 ;     O2 - C18    - N1    
    21     22     44      1    1.0888e+02    4.1673e+02 ;     N1 - C19    - H13   
    21     22     45      1    1.0888e+02    4.1673e+02 ;     N1 - C19    - H14   
    21     22     46      1    1.0888e+02    4.1673e+02 ;     N1 - C19    - H15   
    22     21     43      1    1.1768e+02    3.8325e+02 ;    C19 - N1     - H12   
    23     24     25      1    1.0721e+02    5.9078e+02 ;     N2 - S1     - O3    
    23     24     26      1    1.0721e+02    5.9078e+02 ;     N2 - S1     - O4    
    23     24     27      1    1.0432e+02    5.2718e+02 ;     N2 - S1     - C20   
    23     29     30      1    1.1046e+02    5.5396e+02 ;     N2 - C21    - C22   
    23     29     50      1    1.0979e+02    4.1505e+02 ;     N2 - C21    - H19   
    23     29     51      1    1.0979e+02    4.1505e+02 ;     N2 - C21    - H20   
    24     23     29      1    1.1649e+02    5.2049e+02 ;     S1 - N2     - C21   
    24     27     47      1    1.0715e+02    3.6150e+02 ;     S1 - C20    - H16   
    24     27     48      1    1.0715e+02    3.6150e+02 ;     S1 - C20    - H17   
    24     27     49      1    1.0715e+02    3.6150e+02 ;     S1 - C20    - H18   
    25     24     26      1    1.2005e+02    6.1588e+02 ;     O3 - S1     - O4    
    25     24     27      1    1.0861e+02    5.4727e+02 ;     O3 - S1     - C20   
    26     24     27      1    1.0861e+02    5.4727e+02 ;     O4 - S1     - C20   
    29     30     31      1    1.1019e+02    5.6484e+02 ;    C21 - C22    - O5    
    29     30     52      1    1.0956e+02    3.8828e+02 ;    C21 - C22    - H21   
    29     30     53      1    1.0956e+02    3.8828e+02 ;    C21 - C22    - H22   
    30     29     50      1    1.0956e+02    3.8828e+02 ;    C22 - C21    - H19   
    30     29     51      1    1.0956e+02    3.8828e+02 ;    C22 - C21    - H20   
    30     31     54      1    1.0726e+02    3.9664e+02 ;    C22 - O5     - H23   
    31     30     52      1    1.1026e+02    4.2593e+02 ;     O5 - C22    - H21   
    31     30     53      1    1.1026e+02    4.2593e+02 ;     O5 - C22    - H22   
    32      1     33      1    1.1443e+02    3.2217e+02 ;     H1 - C1     - H2    
    35      3     36      1    1.1443e+02    3.2217e+02 ;     H4 - C3     - H5    
    44     22     45      1    1.0846e+02    3.2803e+02 ;    H13 - C19    - H14   
    44     22     46      1    1.0846e+02    3.2803e+02 ;    H13 - C19    - H15   
    45     22     46      1    1.0846e+02    3.2803e+02 ;    H14 - C19    - H15   
    47     27     48      1    1.0846e+02    3.2803e+02 ;    H16 - C20    - H17   
    47     27     49      1    1.0846e+02    3.2803e+02 ;    H16 - C20    - H18   
    48     27     49      1    1.0846e+02    3.2803e+02 ;    H17 - C20    - H18   
    50     29     51      1    1.0846e+02    3.2803e+02 ;    H19 - C21    - H20   
    52     30     53      1    1.0846e+02    3.2803e+02 ;    H21 - C22    - H22   

[ dihedrals ] ; propers
; treated as RBs in GROMACS to use combine multiple AMBER torsions per quartet
;    I      j      k      l   func    C0         C1         C2         C3         C4         C5
     1      2      3     35      3    0.65084    1.95253    0.00000   -2.60338    0.00000    0.00000 ;     C1-    C2-    C3-    H4
     1      2      3     36      3    0.65084    1.95253    0.00000   -2.60338    0.00000    0.00000 ;     C1-    C2-    C3-    H5
     1      2     10     11      3    0.00000    0.00000    0.00000    0.00000    0.00000    0.00000 ;     C1-    C2-   C10-   C11
     1      2     10     13      3    0.00000    0.00000    0.00000    0.00000    0.00000    0.00000 ;     C1-    C2-   C10-   C13
     1      3      2     10      3    0.65084    1.95253    0.00000   -2.60338    0.00000    0.00000 ;     C1-    C3-    C2-   C10
     1      3      2     34      3    0.65084    1.95253    0.00000   -2.60338    0.00000    0.00000 ;     C1-    C3-    C2-    H3
     2      1      3     35      3    0.65084    1.95253    0.00000   -2.60338    0.00000    0.00000 ;     C2-    C1-    C3-    H4
     2      1      3     36      3    0.65084    1.95253    0.00000   -2.60338    0.00000    0.00000 ;     C2-    C1-    C3-    H5
     2     10     11     12      3   30.33400    0.00000  -30.33400    0.00000    0.00000    0.00000 ;     C2-   C10-   C11-   C12
     2     10     11     23      3   30.33400    0.00000  -30.33400    0.00000    0.00000    0.00000 ;     C2-   C10-   C11-    N2
     2     10     13     14      3   30.33400    0.00000  -30.33400    0.00000    0.00000    0.00000 ;     C2-   C10-   C13-   C14
     2     10     13     42      3   30.33400    0.00000  -30.33400    0.00000    0.00000    0.00000 ;     C2-   C10-   C13-   H11
     3      1      2     10      3    0.65084    1.95253    0.00000   -2.60338    0.00000    0.00000 ;     C3-    C1-    C2-   C10
     3      1      2     34      3    0.65084    1.95253    0.00000   -2.60338    0.00000    0.00000 ;     C3-    C1-    C2-    H3
     3      2     10     11      3    0.00000    0.00000    0.00000    0.00000    0.00000    0.00000 ;     C3-    C2-   C10-   C11
     3      2     10     13      3    0.00000    0.00000    0.00000    0.00000    0.00000    0.00000 ;     C3-    C2-   C10-   C13
     4      5      6      7      3   30.33400    0.00000  -30.33400    0.00000    0.00000    0.00000 ;     C4-    C5-    C6-    C7
     4      5      6     38      3   30.33400    0.00000  -30.33400    0.00000    0.00000    0.00000 ;     C4-    C5-    C6-    H7
     4      9      8      7      3   30.33400    0.00000  -30.33400    0.00000    0.00000    0.00000 ;     C4-    C9-    C8-    C7
     4      9      8     39      3   30.33400    0.00000  -30.33400    0.00000    0.00000    0.00000 ;     C4-    C9-    C8-    H8
     4     17     16     15      3    8.78640    0.00000   -8.78640    0.00000    0.00000    0.00000 ;     C4-   C16-    O1-   C15
     4     17     18     14      3   33.47200    0.00000  -33.47200    0.00000    0.00000    0.00000 ;     C4-   C16-   C17-   C14
     4     17     18     19      3   33.47200    0.00000  -33.47200    0.00000    0.00000    0.00000 ;     C4-   C16-   C17-   C18
     5      4      9      8      3   30.33400    0.00000  -30.33400    0.00000    0.00000    0.00000 ;     C5-    C4-    C9-    C8
     5      4      9     40      3   30.33400    0.00000  -30.33400    0.00000    0.00000    0.00000 ;     C5-    C4-    C9-    H9
     5      4     17     16      3    5.85760    0.00000   -5.85760    0.00000    0.00000    0.00000 ;     C5-    C4-   C16-    O1
     5      4     17     18      3    5.85760    0.00000   -5.85760    0.00000    0.00000    0.00000 ;     C5-    C4-   C16-   C17
     5      6      7      8      3   30.33400    0.00000  -30.33400    0.00000    0.00000    0.00000 ;     C5-    C6-    C7-    C8
     5      6      7     28      3   30.33400    0.00000  -30.33400    0.00000    0.00000    0.00000 ;     C5-    C6-    C7-    F1
     6      5      4      9      3   30.33400    0.00000  -30.33400    0.00000    0.00000    0.00000 ;     C6-    C5-    C4-    C9
     6      5      4     17      3   30.33400    0.00000  -30.33400    0.00000    0.00000    0.00000 ;     C6-    C5-    C4-   C16
     6      7      8      9      3   30.33400    0.00000  -30.33400    0.00000    0.00000    0.00000 ;     C6-    C7-    C8-    C9
     6      7      8     39      3   30.33400    0.00000  -30.33400    0.00000    0.00000    0.00000 ;     C6-    C7-    C8-    H8
     7      6      5     37      3   30.33400    0.00000  -30.33400    0.00000    0.00000    0.00000 ;     C7-    C6-    C5-    H6
     7      8      9     40      3   30.33400    0.00000  -30.33400    0.00000    0.00000    0.00000 ;     C7-    C8-    C9-    H9
     8      7      6     38      3   30.33400    0.00000  -30.33400    0.00000    0.00000    0.00000 ;     C8-    C7-    C6-    H7
     8      9      4     17      3   30.33400    0.00000  -30.33400    0.00000    0.00000    0.00000 ;     C8-    C9-    C4-   C16
     9      4      5     37      3   30.33400    0.00000  -30.33400    0.00000    0.00000    0.00000 ;     C9-    C4-    C5-    H6
     9      4     17     16      3    5.85760    0.00000   -5.85760    0.00000    0.00000    0.00000 ;     C9-    C4-   C16-    O1
     9      4     17     18      3    5.85760    0.00000   -5.85760    0.00000    0.00000    0.00000 ;     C9-    C4-   C16-   C17
     9      8      7     28      3   30.33400    0.00000  -30.33400    0.00000    0.00000    0.00000 ;     C9-    C8-    C7-    F1
    10      2      3     35      3    0.65084    1.95253    0.00000   -2.60338    0.00000    0.00000 ;    C10-    C2-    C3-    H4
    10      2      3     36      3    0.65084    1.95253    0.00000   -2.60338    0.00000    0.00000 ;    C10-    C2-    C3-    H5
    10     11     12     15      3   30.33400    0.00000  -30.33400    0.00000    0.00000    0.00000 ;    C10-   C11-   C12-   C15
    10     11     12     41      3   30.33400    0.00000  -30.33400    0.00000    0.00000    0.00000 ;    C10-   C11-   C12-   H10
    10     11     23     24      3    8.78640    0.00000   -8.78640    0.00000    0.00000    0.00000 ;    C10-   C11-    N2-    S1
    10     11     23     29      3    8.78640    0.00000   -8.78640    0.00000    0.00000    0.00000 ;    C10-   C11-    N2-   C21
    10     13     14     15      3   30.33400    0.00000  -30.33400    0.00000    0.00000    0.00000 ;    C10-   C13-   C14-   C15
    10     13     14     18      3   30.33400    0.00000  -30.33400    0.00000    0.00000    0.00000 ;    C10-   C13-   C14-   C17
    11     10      2     34      3    6.40152   -9.58136    0.00000    6.35968    0.00000    0.00000 ;    C11-   C10-    C2-    H3
    11     10     13     14      3   30.33400    0.00000  -30.33400    0.00000    0.00000    0.00000 ;    C11-   C10-   C13-   C14
    11     10     13     42      3   30.33400    0.00000  -30.33400    0.00000    0.00000    0.00000 ;    C11-   C10-   C13-   H11
    11     12     15     14      3   30.33400    0.00000  -30.33400    0.00000    0.00000    0.00000 ;    C11-   C12-   C15-   C14
    11     12     15     16      3   30.33400    0.00000  -30.33400    0.00000    0.00000    0.00000 ;    C11-   C12-   C15-    O1
    11     23     24     25      3    0.83680    0.00000   -0.83680    0.00000    0.00000    0.00000 ;    C11-    N2-    S1-    O3
    11     23     24     26      3    0.83680    0.00000   -0.83680    0.00000    0.00000    0.00000 ;    C11-    N2-    S1-    O4
    11     23     24     27      3    0.83680    0.00000   -0.83680    0.00000    0.00000    0.00000 ;    C11-    N2-    S1-   C20
    11     23     29     30      3    0.00000    0.00000    0.00000    0.00000    0.00000    0.00000 ;    C11-    N2-   C21-   C22
    11     23     29     50      3    0.00000    0.00000    0.00000    0.00000    0.00000    0.00000 ;    C11-    N2-   C21-   H19
    11     23     29     51      3    0.00000    0.00000    0.00000    0.00000    0.00000    0.00000 ;    C11-    N2-   C21-   H20
    12     11     10     13      3   30.33400    0.00000  -30.33400    0.00000    0.00000    0.00000 ;    C12-   C11-   C10-   C13
    12     11     23     24      3    8.78640    0.00000   -8.78640    0.00000    0.00000    0.00000 ;    C12-   C11-    N2-    S1
    12     11     23     29      3    8.78640    0.00000   -8.78640    0.00000    0.00000    0.00000 ;    C12-   C11-    N2-   C21
    12     15     14     13      3   30.33400    0.00000  -30.33400    0.00000    0.00000    0.00000 ;    C12-   C15-   C14-   C13
    12     15     14     18      3   30.33400    0.00000  -30.33400    0.00000    0.00000    0.00000 ;    C12-   C15-   C14-   C17
    12     15     16     17      3    7.53120    0.00000   -7.53120    0.00000    0.00000    0.00000 ;    C12-   C15-    O1-   C16
    13     10      2     34      3    6.40152   -9.58136    0.00000    6.35968    0.00000    0.00000 ;    C13-   C10-    C2-    H3
    13     10     11     23      3   30.33400    0.00000  -30.33400    0.00000    0.00000    0.00000 ;    C13-   C10-   C11-    N2
    13     14     15     16      3   30.33400    0.00000  -30.33400    0.00000    0.00000    0.00000 ;    C13-   C14-   C15-    O1
    13     14     18     17      3    5.85760    0.00000   -5.85760    0.00000    0.00000    0.00000 ;    C13-   C14-   C17-   C16
    13     14     18     19      3    5.85760    0.00000   -5.85760    0.00000    0.00000    0.00000 ;    C13-   C14-   C17-   C18
    14     15     12     41      3   30.33400    0.00000  -30.33400    0.00000    0.00000    0.00000 ;    C14-   C15-   C12-   H10
    14     15     16     17      3    7.53120    0.00000   -7.53120    0.00000    0.00000    0.00000 ;    C14-   C15-    O1-   C16
    14     18     17     16      3   33.47200    0.00000  -33.47200    0.00000    0.00000    0.00000 ;    C14-   C17-   C16-    O1
    14     18     19     20      3   24.05800    0.00000  -24.05800    0.00000    0.00000    0.00000 ;    C14-   C17-   C18-    O2
    14     18     19     21      3   24.05800    0.00000  -24.05800    0.00000    0.00000    0.00000 ;    C14-   C17-   C18-    N1
    15     12     11     23      3   30.33400    0.00000  -30.33400    0.00000    0.00000    0.00000 ;    C15-   C12-   C11-    N2
    15     14     13     42      3   30.33400    0.00000  -30.33400    0.00000    0.00000    0.00000 ;    C15-   C14-   C13-   H11
    15     14     18     17      3    5.85760    0.00000   -5.85760    0.00000    0.00000    0.00000 ;    C15-   C14-   C17-   C16
    15     14     18     19      3    5.85760    0.00000   -5.85760    0.00000    0.00000    0.00000 ;    C15-   C14-   C17-   C18
    15     16     17     18      3    8.78640    0.00000   -8.78640    0.00000    0.00000    0.00000 ;    C15-    O1-   C16-   C17
    16     15     12     41      3   30.33400    0.00000  -30.33400    0.00000    0.00000    0.00000 ;     O1-   C15-   C12-   H10
    16     15     14     18      3   30.33400    0.00000  -30.33400    0.00000    0.00000    0.00000 ;     O1-   C15-   C14-   C17
    16     17     18     19      3   33.47200    0.00000  -33.47200    0.00000    0.00000    0.00000 ;     O1-   C16-   C17-   C18
    17      4      5     37      3   30.33400    0.00000  -30.33400    0.00000    0.00000    0.00000 ;    C16-    C4-    C5-    H6
    17      4      9     40      3   30.33400    0.00000  -30.33400    0.00000    0.00000    0.00000 ;    C16-    C4-    C9-    H9
    17     18     19     20      3   24.05800    0.00000  -24.05800    0.00000    0.00000    0.00000 ;    C16-   C17-   C18-    O2
    17     18     19     21      3   24.05800    0.00000  -24.05800    0.00000    0.00000    0.00000 ;    C16-   C17-   C18-    N1
    18     14     13     42      3   30.33400    0.00000  -30.33400    0.00000    0.00000    0.00000 ;    C17-   C14-   C13-   H11
    18     19     21     22      3   20.92000    0.00000  -20.92000    0.00000    0.00000    0.00000 ;    C17-   C18-    N1-   C19
    18     19     21     43      3   20.92000    0.00000  -20.92000    0.00000    0.00000    0.00000 ;    C17-   C18-    N1-   H12
    19     21     22     44      3    0.00000    0.00000    0.00000    0.00000    0.00000    0.00000 ;    C18-    N1-   C19-   H13
    19     21     22     45      3    0.00000    0.00000    0.00000    0.00000    0.00000    0.00000 ;    C18-    N1-   C19-   H14
    19     21     22     46      3    0.00000    0.00000    0.00000    0.00000    0.00000    0.00000 ;    C18-    N1-   C19-   H15
    20     19     21     22      3   20.92000    0.00000  -20.92000    0.00000    0.00000    0.00000 ;     O2-   C18-    N1-   C19
    20     19     21     43      3   29.28800   -8.36800  -20.92000    0.00000    0.00000    0.00000 ;     O2-   C18-    N1-   H12
    23     11     12     41      3   30.33400    0.00000  -30.33400    0.00000    0.00000    0.00000 ;     N2-   C11-   C12-   H10
    23     24     27     47      3    0.60436    1.81307    0.00000   -2.41742    0.00000    0.00000 ;     N2-    S1-   C20-   H16
    23     24     27     48      3    0.60436    1.81307    0.00000   -2.41742    0.00000    0.00000 ;     N2-    S1-   C20-   H17
    23     24     27     49      3    0.60436    1.81307    0.00000   -2.41742    0.00000    0.00000 ;     N2-    S1-   C20-   H18
    23     29     30     31      3    0.65084    1.95253    0.00000   -2.60338    0.00000    0.00000 ;     N2-   C21-   C22-    O5
    23     29     30     52      3    0.65084    1.95253    0.00000   -2.60338    0.00000    0.00000 ;     N2-   C21-   C22-   H21
    23     29     30     53      3    0.65084    1.95253    0.00000   -2.60338    0.00000    0.00000 ;     N2-   C21-   C22-   H22
    24     23     29     30      3    0.00000    0.00000    0.00000    0.00000    0.00000    0.00000 ;     S1-    N2-   C21-   C22
    24     23     29     50      3    0.00000    0.00000    0.00000    0.00000    0.00000    0.00000 ;     S1-    N2-   C21-   H19
    24     23     29     51      3    0.00000    0.00000    0.00000    0.00000    0.00000    0.00000 ;     S1-    N2-   C21-   H20
    25     24     23     29      3    0.83680    0.00000   -0.83680    0.00000    0.00000    0.00000 ;     O3-    S1-    N2-   C21
    25     24     27     47      3    0.60436    1.81307    0.00000   -2.41742    0.00000    0.00000 ;     O3-    S1-   C20-   H16
    25     24     27     48      3    0.60436    1.81307    0.00000   -2.41742    0.00000    0.00000 ;     O3-    S1-   C20-   H17
    25     24     27     49      3    0.60436    1.81307    0.00000   -2.41742    0.00000    0.00000 ;     O3-    S1-   C20-   H18
    26     24     23     29      3    0.83680    0.00000   -0.83680    0.00000    0.00000    0.00000 ;     O4-    S1-    N2-   C21
    26     24     27     47      3    0.60436    1.81307    0.00000   -2.41742    0.00000    0.00000 ;     O4-    S1-   C20-   H16
    26     24     27     48      3    0.60436    1.81307    0.00000   -2.41742    0.00000    0.00000 ;     O4-    S1-   C20-   H17
    26     24     27     49      3    0.60436    1.81307    0.00000   -2.41742    0.00000    0.00000 ;     O4-    S1-   C20-   H18
    27     24     23     29      3    0.83680    0.00000   -0.83680    0.00000    0.00000    0.00000 ;    C20-    S1-    N2-   C21
    28      7      6     38      3   30.33400    0.00000  -30.33400    0.00000    0.00000    0.00000 ;     F1-    C7-    C6-    H7
    28      7      8     39      3   30.33400    0.00000  -30.33400    0.00000    0.00000    0.00000 ;     F1-    C7-    C8-    H8
    29     30     31     54      3    1.71544    0.96232    0.00000   -2.67776    0.00000    0.00000 ;    C21-   C22-    O5-   H23
    31     30     29     50      3    1.04600   -1.04600    0.00000    0.00000    0.00000    0.00000 ;     O5-   C22-   C21-   H19
    31     30     29     51      3    1.04600   -1.04600    0.00000    0.00000    0.00000    0.00000 ;     O5-   C22-   C21-   H20
    32      1      2      3      3    0.65084    1.95253    0.00000   -2.60338    0.00000    0.00000 ;     H1-    C1-    C2-    C3
    32      1      2     10      3    0.65084    1.95253    0.00000   -2.60338    0.00000    0.00000 ;     H1-    C1-    C2-   C10
    32      1      2     34      3    0.65084    1.95253    0.00000   -2.60338    0.00000    0.00000 ;     H1-    C1-    C2-    H3
    32      1      3      2      3    0.65084    1.95253    0.00000   -2.60338    0.00000    0.00000 ;     H1-    C1-    C3-    C2
    32      1      3     35      3    0.65084    1.95253    0.00000   -2.60338    0.00000    0.00000 ;     H1-    C1-    C3-    H4
    32      1      3     36      3    0.65084    1.95253    0.00000   -2.60338    0.00000    0.00000 ;     H1-    C1-    C3-    H5
    33      1      2      3      3    0.65084    1.95253    0.00000   -2.60338    0.00000    0.00000 ;     H2-    C1-    C2-    C3
    33      1      2     10      3    0.65084    1.95253    0.00000   -2.60338    0.00000    0.00000 ;     H2-    C1-    C2-   C10
    33      1      2     34      3    0.65084    1.95253    0.00000   -2.60338    0.00000    0.00000 ;     H2-    C1-    C2-    H3
    33      1      3      2      3    0.65084    1.95253    0.00000   -2.60338    0.00000    0.00000 ;     H2-    C1-    C3-    C2
    33      1      3     35      3    0.65084    1.95253    0.00000   -2.60338    0.00000    0.00000 ;     H2-    C1-    C3-    H4
    33      1      3     36      3    0.65084    1.95253    0.00000   -2.60338    0.00000    0.00000 ;     H2-    C1-    C3-    H5
    34      2      3     35      3    0.65084    1.95253    0.00000   -2.60338    0.00000    0.00000 ;     H3-    C2-    C3-    H4
    34      2      3     36      3    0.65084    1.95253    0.00000   -2.60338    0.00000    0.00000 ;     H3-    C2-    C3-    H5
    37      5      6     38      3   30.33400    0.00000  -30.33400    0.00000    0.00000    0.00000 ;     H6-    C5-    C6-    H7
    39      8      9     40      3   30.33400    0.00000  -30.33400    0.00000    0.00000    0.00000 ;     H8-    C8-    C9-    H9
    43     21     22     44      3    0.00000    0.00000    0.00000    0.00000    0.00000    0.00000 ;    H12-    N1-   C19-   H13
    43     21     22     45      3    0.00000    0.00000    0.00000    0.00000    0.00000    0.00000 ;    H12-    N1-   C19-   H14
    43     21     22     46      3    0.00000    0.00000    0.00000    0.00000    0.00000    0.00000 ;    H12-    N1-   C19-   H15
    50     29     30     52      3    0.65084    1.95253    0.00000   -2.60338    0.00000    0.00000 ;    H19-   C21-   C22-   H21
    50     29     30     53      3    0.65084    1.95253    0.00000   -2.60338    0.00000    0.00000 ;    H19-   C21-   C22-   H22
    51     29     30     52      3    0.65084    1.95253    0.00000   -2.60338    0.00000    0.00000 ;    H20-   C21-   C22-   H21
    51     29     30     53      3    0.65084    1.95253    0.00000   -2.60338    0.00000    0.00000 ;    H20-   C21-   C22-   H22
    52     30     31     54      3    0.69733    2.09200    0.00000   -2.78933    0.00000    0.00000 ;    H21-   C22-    O5-   H23
    53     30     31     54      3    0.69733    2.09200    0.00000   -2.78933    0.00000    0.00000 ;    H22-   C22-    O5-   H23

[ dihedrals ] ; impropers
; treated as propers in GROMACS to use correct AMBER analytical function
;    I      j      k      l   func   phase     kd      pn
     4      6      5     37      1   180.00   4.60240   2 ;     C4-    C6-    C5-    H6
     4      8      9     40      1   180.00   4.60240   2 ;     C4-    C8-    C9-    H9
     4     18     17     16      1   180.00   4.60240   2 ;     C4-   C17-   C16-    O1
     5      7      6     38      1   180.00   4.60240   2 ;     C5-    C7-    C6-    H7
     5      9      4     17      1   180.00   4.60240   2 ;     C5-    C9-    C4-   C16
     6      8      7     28      1   180.00   4.60240   2 ;     C6-    C8-    C7-    F1
     7      9      8     39      1   180.00   4.60240   2 ;     C7-    C9-    C8-    H8
    10     12     11     23      1   180.00   4.60240   2 ;    C10-   C12-   C11-    N2
    10     14     13     42      1   180.00   4.60240   2 ;    C10-   C14-   C13-   H11
    11     13     10      2      1   180.00   4.60240   2 ;    C11-   C13-   C10-    C2
    11     15     12     41      1   180.00   4.60240   2 ;    C11-   C15-   C12-   H10
    12     14     15     16      1   180.00   4.60240   2 ;    C12-   C14-   C15-    O1
    13     15     14     18      1   180.00   4.60240   2 ;    C13-   C15-   C14-   C17
    18     21     19     20      1   180.00  43.93200   2 ;    C17-    N1-   C18-    O2
    19     14     18     17      1   180.00   4.60240   2 ;    C18-   C14-   C17-   C16
    19     22     21     43      1   180.00   4.60240   2 ;    C18-   C19-    N1-   H12
    29     11     23     24      1   180.00   4.60240   2 ;    C21-   C11-    N2-    S1

; Include Position restraint file
#ifdef POSRES
#include "posre_MOL.itp"
#endif
